 Entering Gaussian System, Link 0=/homes/huanglei/prog/g09/g09
 Initial command:
 /homes/huanglei/prog/g09/l1.exe /lcrc/project/Drude/chetan/tmp/0/Gau-30236.inp -scrdir=/lcrc/project/Drude/chetan/tmp/0/
 Entering Link 1 = /homes/huanglei/prog/g09/l1.exe PID=     30238.
  
 Copyright (c) 1988,1990,1992,1993,1995,1998,2003,2009, Gaussian, Inc.
                  All Rights Reserved.
  
 This is part of the Gaussian(R) 09 program.  It is based on
 the Gaussian(R) 03 system (copyright 2003, Gaussian, Inc.),
 the Gaussian(R) 98 system (copyright 1998, Gaussian, Inc.),
 the Gaussian(R) 94 system (copyright 1995, Gaussian, Inc.),
 the Gaussian 92(TM) system (copyright 1992, Gaussian, Inc.),
 the Gaussian 90(TM) system (copyright 1990, Gaussian, Inc.),
 the Gaussian 88(TM) system (copyright 1988, Gaussian, Inc.),
 the Gaussian 86(TM) system (copyright 1986, Carnegie Mellon
 University), and the Gaussian 82(TM) system (copyright 1983,
 Carnegie Mellon University). Gaussian is a federally registered
 trademark of Gaussian, Inc.
  
 This software contains proprietary and confidential information,
 including trade secrets, belonging to Gaussian, Inc.
  
 This software is provided under written license and may be
 used, copied, transmitted, or stored only in accord with that
 written license.
  
 The following legend is applicable only to US Government
 contracts under FAR:
  
                    RESTRICTED RIGHTS LEGEND
  
 Use, reproduction and disclosure by the US Government is
 subject to restrictions as set forth in subparagraphs (a)
 and (c) of the Commercial Computer Software - Restricted
 Rights clause in FAR 52.227-19.
  
 Gaussian, Inc.
 340 Quinnipiac St., Bldg. 40, Wallingford CT 06492
  
  
 ---------------------------------------------------------------
 Warning -- This program may not be used in any manner that
 competes with the business of Gaussian, Inc. or will provide
 assistance to any competitor of Gaussian, Inc.  The licensee
 of this program is prohibited from giving any competitor of
 Gaussian, Inc. access to this program.  By using this program,
 the user acknowledges that Gaussian, Inc. is engaged in the
 business of creating and licensing software in the field of
 computational chemistry and represents and warrants to the
 licensee that it is not a competitor of Gaussian, Inc. and that
 it will not use this program in any manner prohibited above.
 ---------------------------------------------------------------
  

 Cite this work as:
 Gaussian 09, Revision A.02,
 M. J. Frisch, G. W. Trucks, H. B. Schlegel, G. E. Scuseria, 
 M. A. Robb, J. R. Cheeseman, G. Scalmani, V. Barone, B. Mennucci, 
 G. A. Petersson, H. Nakatsuji, M. Caricato, X. Li, H. P. Hratchian, 
 A. F. Izmaylov, J. Bloino, G. Zheng, J. L. Sonnenberg, M. Hada, 
 M. Ehara, K. Toyota, R. Fukuda, J. Hasegawa, M. Ishida, T. Nakajima, 
 Y. Honda, O. Kitao, H. Nakai, T. Vreven, J. A. Montgomery, Jr., 
 J. E. Peralta, F. Ogliaro, M. Bearpark, J. J. Heyd, E. Brothers, 
 K. N. Kudin, V. N. Staroverov, R. Kobayashi, J. Normand, 
 K. Raghavachari, A. Rendell, J. C. Burant, S. S. Iyengar, J. Tomasi, 
 M. Cossi, N. Rega, J. M. Millam, M. Klene, J. E. Knox, J. B. Cross, 
 V. Bakken, C. Adamo, J. Jaramillo, R. Gomperts, R. E. Stratmann, 
 O. Yazyev, A. J. Austin, R. Cammi, C. Pomelli, J. W. Ochterski, 
 R. L. Martin, K. Morokuma, V. G. Zakrzewski, G. A. Voth, 
 P. Salvador, J. J. Dannenberg, S. Dapprich, A. D. Daniels, 
 O. Farkas, J. B. Foresman, J. V. Ortiz, J. Cioslowski, 
 and D. J. Fox, Gaussian, Inc., Wallingford CT, 2009.
 
 ******************************************
 Gaussian 09:  EM64L-G09RevA.02 11-Jun-2009
                23-Jun-2017 
 ******************************************
 %mem=1GB
 %nproc=12
 Will use up to   12 processors via shared memory.
 -------------------------------------------------------
 #HF/6-31G* nosymm SCF=Tight opt=(Z-MATRIX,MaxCycle=200)
 -------------------------------------------------------
 1/6=200,10=7,18=40,38=1/1,3;
 2/12=2,15=1,17=6,18=5,29=3,40=1/2;
 3/5=1,6=6,7=1,11=9,16=1,25=1,30=1,71=1/1,2,3;
 4//1;
 5/5=2,32=2,38=5/2;
 6/7=2,8=2,9=2,10=2,28=1/1;
 7/29=1,30=1/1,2,3,16;
 1/6=200,10=7,18=40/3(2);
 2/15=1,29=3/2;
 99//99;
 2/15=1,29=3/2;
 3/5=1,6=6,7=1,11=9,16=1,25=1,30=1,71=1/1,2,3;
 4/5=5,16=3/1;
 5/5=2,32=2,38=5/2;
 7/30=1/1,2,3,16;
 1/6=200,18=40/3(-5);
 2/15=1,29=3/2;
 6/7=2,8=2,9=2,10=2,19=2,28=1/1;
 99/9=1/99;
 ---------------
 Mol-Water Dimer
 ---------------
 Symbolic Z-matrix:
 Charge =  0 Multiplicity = 1
 C                    -1.20905  -0.23651  -0.01918 
 C                     0.08991   0.55293   0.04491 
 O99                   1.222    -0.26249  -0.11001 
 H                    -2.06738   0.42387   0.06207 
 H                    -1.26769  -0.95774   0.79247 
 H                    -1.27637  -0.77802  -0.95628 
 H                     0.14555   1.11298   0.97665 
 H                     0.13148   1.27043  -0.76403 
 H99                   1.27318  -0.87009   0.61476 
 X1                    1.222    -0.26249  -0.11001 
 X2                    2.09253   0.12065   1.38748 
 X3                    1.54336  -4.07762   4.44083 
 O1W                  H99  roh      X2    90.      O99   180.     0
 H1W                  O1W   0.9474   H99   127.2302  X2   phi      0
 H2W                  O1W   0.9474   H1W   105.5395  X3    0.       0
       Variables:
  roh                   1.9835                   
  phi                   2.22229                  
 

 GradGradGradGradGradGradGradGradGradGradGradGradGradGradGradGradGradGrad
 Berny optimization.
 Initialization pass.
                       ----------------------------
                       !    Initial Parameters    !
                       ! (Angstroms and Degrees)  !
 ----------------------                            ----------------------
 !      Name          Value   Derivative information (Atomic Units)     !
 ------------------------------------------------------------------------
 !       roh         1.9835   estimate D2E/DX2                          !
 !       phi         2.2223   estimate D2E/DX2                          !
 ------------------------------------------------------------------------
 Trust Radius=3.00D-01 FncErr=1.00D-07 GrdErr=1.00D-07
 Number of steps in this run= 100 maximum allowed number of steps= 100.
 GradGradGradGradGradGradGradGradGradGradGradGradGradGradGradGradGradGrad

 ---------------------------------------------------------------------------------------------------
                            Z-MATRIX (ANGSTROMS AND DEGREES)
   CD    Cent   Atom    N1       Length/X        N2       Alpha/Y        N3        Beta/Z          J
 ---------------------------------------------------------------------------------------------------
      1      1  C        0  -1.209050         -0.236510         -0.019180
      2      2  C        0   0.089910          0.552930          0.044910
      3      3  O        0   1.222000         -0.262490         -0.110010
      4      4  H        0  -2.067380          0.423870          0.062070
      5      5  H        0  -1.267690         -0.957740          0.792470
      6      6  H        0  -1.276370         -0.778020         -0.956280
      7      7  H        0   0.145550          1.112980          0.976650
      8      8  H        0   0.131480          1.270430         -0.764030
      9      9  H        0   1.273180         -0.870090          0.614760
     10         X        0   1.222000         -0.262490         -0.110010
     11         X        0   2.092530          0.120650          1.387480
     12         X        0   1.543360         -4.077620          4.440830
     13     10  O        9   1.983500(    12)     11   90.000(    25)      3  180.000(    37)      0
     14     11  H       13   0.947400(    13)      9  127.230(    26)     11    2.222(    38)      0
     15     12  H       13   0.947400(    14)     14  105.540(    27)     12    0.000(    39)      0
 ---------------------------------------------------------------------------------------------------
                         Z-Matrix orientation:                         
 ---------------------------------------------------------------------
 Center     Atomic      Atomic             Coordinates (Angstroms)
 Number     Number       Type             X           Y           Z
 ---------------------------------------------------------------------
      1          6           0       -1.209050   -0.236510   -0.019180
      2          6           0        0.089910    0.552930    0.044910
      3          8           0        1.222000   -0.262490   -0.110010
      4          1           0       -2.067380    0.423870    0.062070
      5          1           0       -1.267690   -0.957740    0.792470
      6          1           0       -1.276370   -0.778020   -0.956280
      7          1           0        0.145550    1.112980    0.976650
      8          1           0        0.131480    1.270430   -0.764030
      9          1           0        1.273180   -0.870090    0.614760
     10         -1           0        1.222000   -0.262490   -0.110010
     11         -1           0        2.092530    0.120650    1.387480
     12         -1           0        1.543360   -4.077620    4.440830
     13          8           0        1.380356   -2.142520    2.132557
     14          1           0        1.798609   -2.000961    2.970765
     15          1           0        1.024049   -3.019497    2.171581
 ---------------------------------------------------------------------
                    Distance matrix (angstroms):
                    1          2          3          4          5
     1  C    0.000000
     2  C    1.521388   0.000000
     3  O    2.432885   1.403758   0.000000
     4  H    1.086017   2.161215   3.364628   0.000000
     5  H    1.087376   2.164266   2.737955   1.755515   0.000000
     6  H    1.084399   2.154189   2.687712   1.762746   1.757982
     7  H    2.155862   1.088527   2.057059   2.491664   2.513772
     8  H    2.150044   1.082090   1.991688   2.496816   3.056977
     9  H    2.639085   1.936451   0.947148   3.624795   2.548585
    10  X    2.432885   1.403758   0.000000   3.364628   2.737955
    11  X    3.606478   2.449459   1.774005   4.376472   3.578832
    12  X    6.497813   6.548177   5.947153   7.243921   5.562929
    13  O    3.868833   3.645404   2.930648   4.770761   3.195573
    14  H    4.593372   4.242951   3.584122   5.411671   3.903264
    15  H    4.187025   4.261171   3.584122   5.085641   3.377108
                    6          7          8          9         10
     6  H    0.000000
     7  H    3.055152   0.000000
     8  H    2.493020   1.747843   0.000000
     9  H    2.996139   2.309779   2.790406   0.000000
    10  X    2.687712   2.057059   1.991688   0.947148   0.000000
    11  X    4.201227   2.223563   3.129969   1.499999   1.774005
    12  X    6.925824   6.395056   7.595104   5.000006   5.947153
    13  O    4.296623   3.668671   4.647379   1.983500   2.930648
    14  H    5.135442   4.050398   5.237367   2.665652   3.584122
    15  H    4.483264   4.390556   5.274274   2.665653   3.584122
                   11         12         13         14         15
    11  X    0.000000
    12  X    5.220154   0.000000
    13  O    2.486819   3.016506   0.000000
    14  H    2.663534   2.557099   0.947400   0.000000
    15  H    3.408370   2.557108   0.947400   1.508660   0.000000
 Symmetry turned off by external request.
 Stoichiometry    C2H8O2
 Framework group  C1[X(C2H8O2)]
 Deg. of freedom    30
 Full point group                 C1      NOp   1
 Rotational constants (GHZ):      9.9493494      2.9577338      2.4665222
 Standard basis: 6-31G(d) (6D, 7F)
 Integral buffers will be    131072 words long.
 Raffenetti 1 integral format.
 Two-electron integral symmetry is turned off.
    76 basis functions,   144 primitive gaussians,    76 cartesian basis functions
    18 alpha electrons       18 beta electrons
       nuclear repulsion energy       130.9059607433 Hartrees.
 NAtoms=   12 NActive=   12 NUniq=   12 SFac= 7.50D-01 NAtFMM=   80 NAOKFM=F Big=F
 One-electron integrals computed using PRISM.
 NBasis=    76 RedAO= T  NBF=    76
 NBsUse=    76 1.00D-06 NBFU=    76
 Harris functional with IExCor=  205 diagonalized for initial guess.
 ExpMin= 1.61D-01 ExpMax= 5.48D+03 ExpMxC= 8.25D+02 IAcc=1 IRadAn=         1 AccDes= 0.00D+00
 HarFok:  IExCor=  205 AccDes= 0.00D+00 IRadAn=         1 IDoV= 1
 ScaDFX=  1.000000  1.000000  1.000000  1.000000
 FoFCou: FMM=F IPFlag=           0 FMFlag=      100000 FMFlg1=           0
         NFxFlg=           0 DoJE=T BraDBF=F KetDBF=T FulRan=T
         Omega=  0.000000  0.000000  1.000000  0.000000  0.000000 ICntrl=     500 IOpCl=  0
         NMat0=    1 NMatS0=    1 NMatT0=    0 NMatD0=    1 NMtDS0=    0 NMtDT0=    0
         I1Cent=           4 NGrid=           0.
 Symmetry not used in FoFCou.
 Requested convergence on RMS density matrix=1.00D-08 within 128 cycles.
 Requested convergence on MAX density matrix=1.00D-06.
 Requested convergence on             energy=1.00D-06.
 No special actions if energy rises.
 Keep R1 ints in memory in canonical form, NReq=5139081.
 SCF Done:  E(RHF) =  -230.094417009     A.U. after   12 cycles
             Convg  =    0.4156D-08             -V/T =  2.0015

 **********************************************************************

            Population analysis using the SCF density.

 **********************************************************************

 Alpha  occ. eigenvalues --  -20.58885 -20.51887 -11.25094 -11.19949  -1.37673
 Alpha  occ. eigenvalues --   -1.32962  -0.99380  -0.83088  -0.74356  -0.67246
 Alpha  occ. eigenvalues --   -0.60900  -0.60108  -0.57842  -0.52872  -0.52474
 Alpha  occ. eigenvalues --   -0.50730  -0.45383  -0.41031
 Alpha virt. eigenvalues --    0.18595   0.26518   0.28606   0.31147   0.32308
 Alpha virt. eigenvalues --    0.33208   0.35847   0.36583   0.42939   0.47919
 Alpha virt. eigenvalues --    0.74542   0.76425   0.80592   0.83997   0.91472
 Alpha virt. eigenvalues --    0.93418   1.00331   1.08859   1.13279   1.14312
 Alpha virt. eigenvalues --    1.15281   1.18998   1.20530   1.21976   1.22804
 Alpha virt. eigenvalues --    1.25316   1.30556   1.32159   1.36840   1.39488
 Alpha virt. eigenvalues --    1.40698   1.62321   1.65743   1.74365   1.81619
 Alpha virt. eigenvalues --    1.87466   2.00033   2.03308   2.06262   2.13147
 Alpha virt. eigenvalues --    2.14106   2.23994   2.29949   2.47062   2.49587
 Alpha virt. eigenvalues --    2.58237   2.60881   2.67255   2.74173   2.79126
 Alpha virt. eigenvalues --    2.93616   2.95096   3.02084   3.24006   4.05170
 Alpha virt. eigenvalues --    4.35462   4.62008   4.84281
          Condensed to atoms (all electrons):
              1          2          3          4          5          6
     1  C    5.170738   0.347446  -0.054089   0.370920   0.385787   0.387424
     2  C    0.347446   4.709986   0.233606  -0.032878  -0.034049  -0.034630
     3  O   -0.054089   0.233606   8.434416   0.003394  -0.000371   0.002138
     4  H    0.370920  -0.032878   0.003394   0.562141  -0.027391  -0.024990
     5  H    0.385787  -0.034049  -0.000371  -0.027391   0.550728  -0.029725
     6  H    0.387424  -0.034630   0.002138  -0.024990  -0.029725   0.530680
     7  H   -0.055966   0.399318  -0.039637   0.001308  -0.004548   0.004949
     8  H   -0.047403   0.411558  -0.040820  -0.000611   0.004365  -0.004652
     9  H   -0.002768  -0.022622   0.253303  -0.000025   0.002304  -0.000292
    10  O   -0.000787   0.001134  -0.006769   0.000006   0.001821   0.000005
    11  H    0.000010  -0.000034   0.000331   0.000000  -0.000009   0.000000
    12  H    0.000058  -0.000046   0.000336  -0.000001   0.000022  -0.000002
              7          8          9         10         11         12
     1  C   -0.055966  -0.047403  -0.002768  -0.000787   0.000010   0.000058
     2  C    0.399318   0.411558  -0.022622   0.001134  -0.000034  -0.000046
     3  O   -0.039637  -0.040820   0.253303  -0.006769   0.000331   0.000336
     4  H    0.001308  -0.000611  -0.000025   0.000006   0.000000  -0.000001
     5  H   -0.004548   0.004365   0.002304   0.001821  -0.000009   0.000022
     6  H    0.004949  -0.004652  -0.000292   0.000005   0.000000  -0.000002
     7  H    0.612818  -0.041449  -0.003786   0.000098  -0.000005  -0.000008
     8  H   -0.041449   0.557718   0.004982  -0.000005   0.000001   0.000001
     9  H   -0.003786   0.004982   0.258122   0.015754  -0.000265  -0.000275
    10  O    0.000098  -0.000005   0.015754   8.334989   0.267960   0.267874
    11  H   -0.000005   0.000001  -0.000265   0.267960   0.298193  -0.016649
    12  H   -0.000008   0.000001  -0.000275   0.267874  -0.016649   0.298158
 Mulliken atomic charges:
              1
     1  C   -0.501370
     2  C    0.021212
     3  O   -0.785838
     4  H    0.148127
     5  H    0.151065
     6  H    0.169092
     7  H    0.126908
     8  H    0.156317
     9  H    0.495569
    10  O   -0.882081
    11  H    0.450468
    12  H    0.450531
 Sum of Mulliken atomic charges =   0.00000
 Mulliken charges with hydrogens summed into heavy atoms:
              1
     1  C   -0.033086
     2  C    0.304437
     3  O   -0.290269
    10  O    0.018918
 Sum of Mulliken charges with hydrogens summed into heavy atoms =   0.00000
 Electronic spatial extent (au):  <R**2>=            620.2427
 Charge=              0.0000 electrons
 Dipole moment (field-independent basis, Debye):
    X=             -0.8356    Y=             -2.0139    Z=              3.4546  Tot=              4.0852
 Quadrupole moment (field-independent basis, Debye-Ang):
   XX=            -28.3594   YY=            -16.8706   ZZ=            -16.4886
   XY=             -2.7518   XZ=              6.1116   YZ=             -8.6524
 Traceless Quadrupole moment (field-independent basis, Debye-Ang):
   XX=             -7.7865   YY=              3.7023   ZZ=              4.0842
   XY=             -2.7518   XZ=              6.1116   YZ=             -8.6524
 Octapole moment (field-independent basis, Debye-Ang**2):
  XXX=            -22.1273  YYY=              7.6056  ZZZ=             -7.7115  XYY=              1.5980
  XXY=             10.8357  XXZ=             -3.4346  XZZ=             11.6142  YZZ=            -12.0566
  YYZ=             11.5802  XYZ=            -11.9979
 Hexadecapole moment (field-independent basis, Debye-Ang**3):
 XXXX=           -237.8635 YYYY=           -130.9025 ZZZZ=           -108.4138 XXXY=             48.9708
 XXXZ=            -39.5770 YYYX=             26.6268 YYYZ=              7.0117 ZZZX=              8.5930
 ZZZY=              9.1602 XXYY=            -72.4097 XXZZ=            -41.9157 YYZZ=             -4.6060
 XXYZ=             12.3753 YYXZ=             10.2963 ZZXY=            -21.7095
 N-N= 1.309059607433D+02 E-N=-8.043058842848D+02  KE= 2.297423042104D+02
 Calling FoFJK, ICntrl=      2127 FMM=F ISym2X=0 I1Cent= 0 IOpClX= 0 NMat=1 NMatS=1 NMatT=0.
 -------------------------------------------------------------------
 Center     Atomic                   Forces (Hartrees/Bohr)
 Number     Number              X              Y              Z
 -------------------------------------------------------------------
      1        6          -0.000871314   -0.000058731    0.000961672
      2        6           0.005902771   -0.003955289   -0.001062665
      3        8          -0.004021925    0.004980080   -0.002858208
      4        1          -0.000613329    0.000234312   -0.000284709
      5        1           0.000711097    0.000422284   -0.000302384
      6        1           0.000086569    0.000023488   -0.000335914
      7        1          -0.000698512    0.000294545    0.000599882
      8        1          -0.001085556    0.001011196   -0.000192791
      9        1           0.000981461   -0.002525980    0.002421439
     10        8          -0.000803586   -0.001436136    0.002757991
     11        1           0.000975162    0.001566554    0.000028683
     12        1          -0.000562840   -0.000556322   -0.001732997
 -------------------------------------------------------------------
 Cartesian Forces:  Max     0.005902771 RMS     0.001954970
 -----------------------------------------------------------------------------------------------
                       Internal Coordinate Forces (Hartree/Bohr or radian)
  Cent   Atom   N1       Length/X         N2         Alpha/Y        N3         Beta/Z          J
 -----------------------------------------------------------------------------------------------
      1  C           -0.000871(     1)     -0.000059(    16)      0.000962(    31)
      2  C            0.005903(     2)     -0.003955(    17)     -0.001063(    32)
      3  O           -0.002744(     3)      0.004383(    18)     -0.003449(    33)
      4  H           -0.000613(     4)      0.000234(    19)     -0.000285(    34)
      5  H            0.000711(     5)      0.000422(    20)     -0.000302(    35)
      6  H            0.000087(     6)      0.000023(    21)     -0.000336(    36)
      7  H           -0.000699(     7)      0.000295(    22)      0.000600(    37)
      8  H           -0.001086(     8)      0.001011(    23)     -0.000193(    38)
      9  H           -0.000760(     9)     -0.002336(    24)      0.004108(    39)
         X            0.000000(    10)      0.000000(    25)      0.000000(    40)
         X           -0.000043(    11)      0.000030(    26)      0.000007(    41)
         X            0.000115(    12)     -0.000049(    27)     -0.000049(    42)
     10  O        9   0.001058(    13)     11  -0.000047(    28)      3   0.002737(    43)     0
     11  H       13   0.000690(    14)      9   0.000109(    29)     11   0.000143(    44)     0
     12  H       13   0.000655(    15)     14   0.003139(    30)     12  -0.000612(    45)     0
 -----------------------------------------------------------------------------------------------
 Internal  Forces:  Max     0.005902771 RMS     0.001759005

 GradGradGradGradGradGradGradGradGradGradGradGradGradGradGradGradGradGrad
 Berny optimization.
 Search for a local minimum.
 Step number   1 out of a maximum of  100
 All quantities printed in internal units (Hartrees-Bohrs-Radians)
 Second derivative matrix not updated -- first step.
 The second derivative matrix:
                          roh       phi
           roh          0.04426
           phi          0.00000   0.00000
     Eigenvalues ---    0.00000   0.04426
 RFO step:  Lambda=-1.56462747D-04 EMin= 1.35307160D-12
 Linear search not attempted -- first point.
 Maximum step size (   0.300) exceeded in Quadratic search.
    -- Step size scaled by   0.327
 Variable       Old X    -DE/DX   Delta X   Delta X   Delta X     New X
                                 (Linear)    (Quad)   (Total)
   roh        3.74827   0.00106   0.00000   0.00780   0.00780   3.75607
   phi        0.03879   0.00014   0.00000   0.29990   0.29990   0.33868
         Item               Value     Threshold  Converged?
 Maximum Force            0.001058     0.000450     NO 
 RMS     Force            0.000755     0.000300     NO 
 Maximum Displacement     0.299899     0.001800     NO 
 RMS     Displacement     0.212132     0.001200     NO 
 Predicted change in Energy=-4.988440D-05
 GradGradGradGradGradGradGradGradGradGradGradGradGradGradGradGradGradGrad

 ---------------------------------------------------------------------------------------------------
                            Z-MATRIX (ANGSTROMS AND DEGREES)
   CD    Cent   Atom    N1       Length/X        N2       Alpha/Y        N3        Beta/Z          J
 ---------------------------------------------------------------------------------------------------
      1      1  C        0  -1.209050         -0.236510         -0.019180
      2      2  C        0   0.089910          0.552930          0.044910
      3      3  O        0   1.222000         -0.262490         -0.110010
      4      4  H        0  -2.067380          0.423870          0.062070
      5      5  H        0  -1.267690         -0.957740          0.792470
      6      6  H        0  -1.276370         -0.778020         -0.956280
      7      7  H        0   0.145550          1.112980          0.976650
      8      8  H        0   0.131480          1.270430         -0.764030
      9      9  H        0   1.273180         -0.870090          0.614760
     10         X        0   1.222000         -0.262490         -0.110010
     11         X        0   2.092530          0.120650          1.387480
     12         X        0   1.543360         -4.077620          4.440830
     13     10  O        9   1.987629(    12)     11   90.000(    25)      3  180.000(    37)      0
     14     11  H       13   0.947400(    13)      9  127.230(    26)     11   19.405(    38)      0
     15     12  H       13   0.947400(    14)     14  105.540(    27)     12    0.000(    39)      0
 ---------------------------------------------------------------------------------------------------
                         Z-Matrix orientation:                         
 ---------------------------------------------------------------------
 Center     Atomic      Atomic             Coordinates (Angstroms)
 Number     Number       Type             X           Y           Z
 ---------------------------------------------------------------------
      1          6           0       -1.209050   -0.236510   -0.019180
      2          6           0        0.089910    0.552930    0.044910
      3          8           0        1.222000   -0.262490   -0.110010
      4          1           0       -2.067380    0.423870    0.062070
      5          1           0       -1.267690   -0.957740    0.792470
      6          1           0       -1.276370   -0.778020   -0.956280
      7          1           0        0.145550    1.112980    0.976650
      8          1           0        0.131480    1.270430   -0.764030
      9          1           0        1.273180   -0.870090    0.614760
     10         -1           0        1.222000   -0.262490   -0.110010
     11         -1           0        2.092530    0.120650    1.387480
     12         -1           0        1.543360   -4.077620    4.440830
     13          8           0        1.380580   -2.145168    2.135716
     14          1           0        1.590692   -1.945169    3.037614
     15          1           0        1.232414   -3.080586    2.111050
 ---------------------------------------------------------------------
                    Distance matrix (angstroms):
                    1          2          3          4          5
     1  C    0.000000
     2  C    1.521388   0.000000
     3  O    2.432885   1.403758   0.000000
     4  H    1.086017   2.161215   3.364628   0.000000
     5  H    1.087376   2.164266   2.737955   1.755515   0.000000
     6  H    1.084399   2.154189   2.687712   1.762746   1.757982
     7  H    2.155862   1.088527   2.057059   2.491664   2.513772
     8  H    2.150044   1.082090   1.991688   2.496816   3.056977
     9  H    2.639085   1.936451   0.947148   3.624795   2.548585
    10  X    2.432885   1.403758   0.000000   3.364628   2.737955
    11  X    3.606478   2.449459   1.774005   4.376472   3.578832
    12  X    6.497813   6.548177   5.947153   7.243921   5.562929
    13  O    3.872046   3.649251   2.934776   4.773719   3.198066
    14  H    4.483532   4.177215   3.588159   5.277092   3.766435
    15  H    4.311310   4.333207   3.588158   5.231460   3.534918
                    6          7          8          9         10
     6  H    0.000000
     7  H    3.055152   0.000000
     8  H    2.493020   1.747843   0.000000
     9  H    2.996139   2.309779   2.790406   0.000000
    10  X    2.687712   2.057059   1.991688   0.947148   0.000000
    11  X    4.201227   2.223563   3.129969   1.499999   1.774005
    12  X    6.925824   6.395056   7.595104   5.000006   5.947153
    13  O    4.299874   3.672093   4.651354   1.987629   2.934776
    14  H    5.053066   3.960844   5.188630   2.669613   3.588159
    15  H    4.583047   4.478184   5.330054   2.669614   3.588158
                   11         12         13         14         15
    11  X    0.000000
    12  X    5.220154   0.000000
    13  O    2.490113   3.012377   0.000000
    14  H    2.691170   2.553155   0.947400   0.000000
    15  H    3.392825   2.553163   0.947400   1.508660   0.000000
 Symmetry turned off by external request.
 Stoichiometry    C2H8O2
 Framework group  C1[X(C2H8O2)]
 Deg. of freedom    30
 Full point group                 C1      NOp   1
 Rotational constants (GHZ):      9.9396304      2.9484713      2.4654676
 Standard basis: 6-31G(d) (6D, 7F)
 Integral buffers will be    131072 words long.
 Raffenetti 1 integral format.
 Two-electron integral symmetry is turned off.
    76 basis functions,   144 primitive gaussians,    76 cartesian basis functions
    18 alpha electrons       18 beta electrons
       nuclear repulsion energy       130.8566409411 Hartrees.
 NAtoms=   12 NActive=   12 NUniq=   12 SFac= 7.50D-01 NAtFMM=   80 NAOKFM=F Big=F
 One-electron integrals computed using PRISM.
 NBasis=    76 RedAO= T  NBF=    76
 NBsUse=    76 1.00D-06 NBFU=    76
 Initial guess read from the read-write file.
 B after Tr=     0.000000    0.000000    0.000000
         Rot=    1.000000    0.000000    0.000000    0.000000 Ang=   0.00 deg.
 Harris functional with IExCor=  205 diagonalized for initial guess.
 ExpMin= 1.61D-01 ExpMax= 5.48D+03 ExpMxC= 8.25D+02 IAcc=1 IRadAn=         1 AccDes= 0.00D+00
 HarFok:  IExCor=  205 AccDes= 0.00D+00 IRadAn=         1 IDoV= 1
 ScaDFX=  1.000000  1.000000  1.000000  1.000000
 FoFCou: FMM=F IPFlag=           0 FMFlag=      100000 FMFlg1=           0
         NFxFlg=           0 DoJE=T BraDBF=F KetDBF=T FulRan=T
         Omega=  0.000000  0.000000  1.000000  0.000000  0.000000 ICntrl=     500 IOpCl=  0
         NMat0=    1 NMatS0=    1 NMatT0=    0 NMatD0=    1 NMtDS0=    0 NMtDT0=    0
         I1Cent=           4 NGrid=           0.
 Symmetry not used in FoFCou.
 Requested convergence on RMS density matrix=1.00D-08 within 128 cycles.
 Requested convergence on MAX density matrix=1.00D-06.
 Requested convergence on             energy=1.00D-06.
 No special actions if energy rises.
 Keep R1 ints in memory in canonical form, NReq=5139081.
 SCF Done:  E(RHF) =  -230.094423011     A.U. after   11 cycles
             Convg  =    0.6816D-08             -V/T =  2.0015
 Calling FoFJK, ICntrl=      2127 FMM=F ISym2X=0 I1Cent= 0 IOpClX= 0 NMat=1 NMatS=1 NMatT=0.
 -------------------------------------------------------------------
 Center     Atomic                   Forces (Hartrees/Bohr)
 Number     Number              X              Y              Z
 -------------------------------------------------------------------
      1        6          -0.000938747   -0.000134595    0.001171335
      2        6           0.005753703   -0.004067921   -0.001263452
      3        8          -0.003964316    0.004936044   -0.002809986
      4        1          -0.000614892    0.000297657   -0.000336301
      5        1           0.000797275    0.000368675   -0.000428137
      6        1           0.000094273    0.000033954   -0.000326610
      7        1          -0.000671680    0.000379615    0.000649210
      8        1          -0.001040748    0.001039718   -0.000153715
      9        1           0.000999630   -0.002500496    0.002451644
     10        8          -0.000814989   -0.001332647    0.002737973
     11        1           0.000631761    0.001562182    0.000218285
     12        1          -0.000231269   -0.000582187   -0.001910244
 -------------------------------------------------------------------
 Cartesian Forces:  Max     0.005753703 RMS     0.001947082
 -----------------------------------------------------------------------------------------------
                       Internal Coordinate Forces (Hartree/Bohr or radian)
  Cent   Atom   N1       Length/X         N2         Alpha/Y        N3         Beta/Z          J
 -----------------------------------------------------------------------------------------------
      1  C           -0.000939(     1)     -0.000135(    16)      0.001171(    31)
      2  C            0.005754(     2)     -0.004068(    17)     -0.001263(    32)
      3  O           -0.002896(     3)      0.004438(    18)     -0.003303(    33)
      4  H           -0.000615(     4)      0.000298(    19)     -0.000336(    34)
      5  H            0.000797(     5)      0.000369(    20)     -0.000428(    35)
      6  H            0.000094(     6)      0.000034(    21)     -0.000327(    36)
      7  H           -0.000672(     7)      0.000380(    22)      0.000649(    37)
      8  H           -0.001041(     8)      0.001040(    23)     -0.000154(    38)
      9  H           -0.000621(     9)     -0.002233(    24)      0.003924(    39)
         X            0.000000(    10)      0.000000(    25)      0.000000(    40)
         X            0.000053(    11)     -0.000109(    26)      0.000083(    41)
         X            0.000085(    12)     -0.000013(    27)     -0.000017(    42)
     10  O        9   0.001004(    13)     11   0.000386(    28)      3   0.002287(    43)     0
     11  H       13   0.000678(    14)      9   0.000651(    29)     11  -0.000154(    44)     0
     12  H       13   0.000661(    15)     14   0.003374(    30)     12  -0.000398(    45)     0
 -----------------------------------------------------------------------------------------------
 Internal  Forces:  Max     0.005753703 RMS     0.001747662

 GradGradGradGradGradGradGradGradGradGradGradGradGradGradGradGradGradGrad
 Berny optimization.
 Search for a local minimum.
 Step number   2 out of a maximum of  100
 All quantities printed in internal units (Hartrees-Bohrs-Radians)
 Update second derivatives using D2CorN and points    1    2
 DE= -6.00D-06 DEPred=-4.99D-05 R= 1.20D-01
 Trust test= 1.20D-01 RLast= 3.00D-01 DXMaxT set to 3.00D-01
 The second derivative matrix:
                          roh       phi
           roh          0.04424
           phi         -0.00047   0.00099
     Eigenvalues ---    0.00098   0.04424
 RFO step:  Lambda=-2.41111709D-05 EMin= 9.83865822D-04
 Quartic linear search produced a step of -0.43560.
 Variable       Old X    -DE/DX   Delta X   Delta X   Delta X     New X
                                 (Linear)    (Quad)   (Total)
   roh        3.75607   0.00100  -0.00340   0.02305   0.01965   3.77573
   phi        0.33868  -0.00015  -0.13064  -0.01564  -0.14628   0.19240
         Item               Value     Threshold  Converged?
 Maximum Force            0.001004     0.000450     NO 
 RMS     Force            0.000718     0.000300     NO 
 Maximum Displacement     0.146281     0.001800     NO 
 RMS     Displacement     0.104365     0.001200     NO 
 Predicted change in Energy=-2.170976D-05
 GradGradGradGradGradGradGradGradGradGradGradGradGradGradGradGradGradGrad

 ---------------------------------------------------------------------------------------------------
                            Z-MATRIX (ANGSTROMS AND DEGREES)
   CD    Cent   Atom    N1       Length/X        N2       Alpha/Y        N3        Beta/Z          J
 ---------------------------------------------------------------------------------------------------
      1      1  C        0  -1.209050         -0.236510         -0.019180
      2      2  C        0   0.089910          0.552930          0.044910
      3      3  O        0   1.222000         -0.262490         -0.110010
      4      4  H        0  -2.067380          0.423870          0.062070
      5      5  H        0  -1.267690         -0.957740          0.792470
      6      6  H        0  -1.276370         -0.778020         -0.956280
      7      7  H        0   0.145550          1.112980          0.976650
      8      8  H        0   0.131480          1.270430         -0.764030
      9      9  H        0   1.273180         -0.870090          0.614760
     10         X        0   1.222000         -0.262490         -0.110010
     11         X        0   2.092530          0.120650          1.387480
     12         X        0   1.543360         -4.077620          4.440830
     13     10  O        9   1.998029(    12)     11   90.000(    25)      3  180.000(    37)      0
     14     11  H       13   0.947400(    13)      9  127.230(    26)     11   11.024(    38)      0
     15     12  H       13   0.947400(    14)     14  105.540(    27)     12    0.000(    39)      0
 ---------------------------------------------------------------------------------------------------
                         Z-Matrix orientation:                         
 ---------------------------------------------------------------------
 Center     Atomic      Atomic             Coordinates (Angstroms)
 Number     Number       Type             X           Y           Z
 ---------------------------------------------------------------------
      1          6           0       -1.209050   -0.236510   -0.019180
      2          6           0        0.089910    0.552930    0.044910
      3          8           0        1.222000   -0.262490   -0.110010
      4          1           0       -2.067380    0.423870    0.062070
      5          1           0       -1.267690   -0.957740    0.792470
      6          1           0       -1.276370   -0.778020   -0.956280
      7          1           0        0.145550    1.112980    0.976650
      8          1           0        0.131480    1.270430   -0.764030
      9          1           0        1.273180   -0.870090    0.614760
     10         -1           0        1.222000   -0.262490   -0.110010
     11         -1           0        2.092530    0.120650    1.387480
     12         -1           0        1.543360   -4.077620    4.440830
     13          8           0        1.381142   -2.151841    2.143675
     14          1           0        1.695980   -1.974236    3.019403
     15          1           0        1.128249   -3.064863    2.145179
 ---------------------------------------------------------------------
                    Distance matrix (angstroms):
                    1          2          3          4          5
     1  C    0.000000
     2  C    1.521388   0.000000
     3  O    2.432885   1.403758   0.000000
     4  H    1.086017   2.161215   3.364628   0.000000
     5  H    1.087376   2.164266   2.737955   1.755515   0.000000
     6  H    1.084399   2.154189   2.687712   1.762746   1.757982
     7  H    2.155862   1.088527   2.057059   2.491664   2.513772
     8  H    2.150044   1.082090   1.991688   2.496816   3.056977
     9  H    2.639085   1.936451   0.947148   3.624795   2.548585
    10  X    2.432885   1.403758   0.000000   3.364628   2.737955
    11  X    3.606478   2.449459   1.774005   4.376472   3.578832
    12  X    6.497813   6.548177   5.947153   7.243921   5.562929
    13  O    3.880145   3.658945   2.945177   4.781178   3.204363
    14  H    4.548833   4.220621   3.598327   5.353468   3.843935
    15  H    4.259929   4.310186   3.598327   5.169395   3.465589
                    6          7          8          9         10
     6  H    0.000000
     7  H    3.055152   0.000000
     8  H    2.493020   1.747843   0.000000
     9  H    2.996139   2.309779   2.790406   0.000000
    10  X    2.687712   2.057059   1.991688   0.947148   0.000000
    11  X    4.201227   2.223563   3.129969   1.499999   1.774005
    12  X    6.925824   6.395056   7.595104   5.000006   5.947153
    13  O    4.308071   3.680718   4.661367   1.998029   2.945177
    14  H    5.106061   4.013425   5.223972   2.679591   3.598327
    15  H    4.542123   4.448092   5.315243   2.679592   3.598327
                   11         12         13         14         15
    11  X    0.000000
    12  X    5.220154   0.000000
    13  O    2.498423   3.001976   0.000000
    14  H    2.684953   2.543220   0.947400   0.000000
    15  H    3.413420   2.543228   0.947400   1.508660   0.000000
 Symmetry turned off by external request.
 Stoichiometry    C2H8O2
 Framework group  C1[X(C2H8O2)]
 Deg. of freedom    30
 Full point group                 C1      NOp   1
 Rotational constants (GHZ):      9.9304110      2.9364309      2.4540709
 Standard basis: 6-31G(d) (6D, 7F)
 Integral buffers will be    131072 words long.
 Raffenetti 1 integral format.
 Two-electron integral symmetry is turned off.
    76 basis functions,   144 primitive gaussians,    76 cartesian basis functions
    18 alpha electrons       18 beta electrons
       nuclear repulsion energy       130.7473571144 Hartrees.
 NAtoms=   12 NActive=   12 NUniq=   12 SFac= 7.50D-01 NAtFMM=   80 NAOKFM=F Big=F
 One-electron integrals computed using PRISM.
 NBasis=    76 RedAO= T  NBF=    76
 NBsUse=    76 1.00D-06 NBFU=    76
 Initial guess read from the read-write file.
 B after Tr=     0.000000    0.000000    0.000000
         Rot=    1.000000    0.000000    0.000000    0.000000 Ang=   0.00 deg.
 Harris functional with IExCor=  205 diagonalized for initial guess.
 ExpMin= 1.61D-01 ExpMax= 5.48D+03 ExpMxC= 8.25D+02 IAcc=1 IRadAn=         1 AccDes= 0.00D+00
 HarFok:  IExCor=  205 AccDes= 0.00D+00 IRadAn=         1 IDoV= 1
 ScaDFX=  1.000000  1.000000  1.000000  1.000000
 FoFCou: FMM=F IPFlag=           0 FMFlag=      100000 FMFlg1=           0
         NFxFlg=           0 DoJE=T BraDBF=F KetDBF=T FulRan=T
         Omega=  0.000000  0.000000  1.000000  0.000000  0.000000 ICntrl=     500 IOpCl=  0
         NMat0=    1 NMatS0=    1 NMatT0=    0 NMatD0=    1 NMtDS0=    0 NMtDT0=    0
         I1Cent=           4 NGrid=           0.
 Symmetry not used in FoFCou.
 Requested convergence on RMS density matrix=1.00D-08 within 128 cycles.
 Requested convergence on MAX density matrix=1.00D-06.
 Requested convergence on             energy=1.00D-06.
 No special actions if energy rises.
 Keep R1 ints in memory in canonical form, NReq=5139081.
 SCF Done:  E(RHF) =  -230.094452031     A.U. after   10 cycles
             Convg  =    0.6975D-08             -V/T =  2.0015
 Calling FoFJK, ICntrl=      2127 FMM=F ISym2X=0 I1Cent= 0 IOpClX= 0 NMat=1 NMatS=1 NMatT=0.
 -------------------------------------------------------------------
 Center     Atomic                   Forces (Hartrees/Bohr)
 Number     Number              X              Y              Z
 -------------------------------------------------------------------
      1        6          -0.000897794   -0.000115079    0.001076207
      2        6           0.005721548   -0.003962366   -0.001130830
      3        8          -0.003925353    0.004824783   -0.002719479
      4        1          -0.000606530    0.000269331   -0.000312558
      5        1           0.000767536    0.000398430   -0.000360070
      6        1           0.000089087    0.000032925   -0.000336409
      7        1          -0.000675980    0.000327860    0.000612923
      8        1          -0.001039502    0.001010105   -0.000175652
      9        1           0.000990651   -0.002577583    0.002517979
     10        8          -0.000826207   -0.001195972    0.002512099
     11        1           0.000789561    0.001548404    0.000123017
     12        1          -0.000387018   -0.000560838   -0.001807227
 -------------------------------------------------------------------
 Cartesian Forces:  Max     0.005721548 RMS     0.001911519
 -----------------------------------------------------------------------------------------------
                       Internal Coordinate Forces (Hartree/Bohr or radian)
  Cent   Atom   N1       Length/X         N2         Alpha/Y        N3         Beta/Z          J
 -----------------------------------------------------------------------------------------------
      1  C           -0.000898(     1)     -0.000115(    16)      0.001076(    31)
      2  C            0.005722(     2)     -0.003962(    17)     -0.001131(    32)
      3  O           -0.002724(     3)      0.004264(    18)     -0.003274(    33)
      4  H           -0.000607(     4)      0.000269(    19)     -0.000313(    34)
      5  H            0.000768(     5)      0.000398(    20)     -0.000360(    35)
      6  H            0.000089(     6)      0.000033(    21)     -0.000336(    36)
      7  H           -0.000676(     7)      0.000328(    22)      0.000613(    37)
      8  H           -0.001040(     8)      0.001010(    23)     -0.000176(    38)
      9  H           -0.000744(     9)     -0.002141(    24)      0.003868(    39)
         X            0.000000(    10)      0.000000(    25)      0.000000(    40)
         X            0.000007(    11)     -0.000056(    26)      0.000064(    41)
         X            0.000103(    12)     -0.000029(    27)     -0.000031(    42)
     10  O        9   0.000744(    13)     11   0.000243(    28)      3   0.002572(    43)     0
     11  H       13   0.000666(    14)      9   0.000387(    29)     11  -0.000008(    44)     0
     12  H       13   0.000641(    15)     14   0.003220(    30)     12  -0.000505(    45)     0
 -----------------------------------------------------------------------------------------------
 Internal  Forces:  Max     0.005721548 RMS     0.001710064

 GradGradGradGradGradGradGradGradGradGradGradGradGradGradGradGradGradGrad
 Berny optimization.
 Search for a local minimum.
 Step number   3 out of a maximum of  100
 All quantities printed in internal units (Hartrees-Bohrs-Radians)
 Update second derivatives using D2CorN and points    1    2    3
 DE= -2.90D-05 DEPred=-2.17D-05 R= 1.34D+00
 SS=  1.41D+00  RLast= 1.48D-01 DXNew= 5.0454D-01 4.4279D-01
 Trust test= 1.34D+00 RLast= 1.48D-01 DXMaxT set to 4.43D-01
 The second derivative matrix:
                          roh       phi
           roh          0.04236
           phi          0.00045   0.00059
     Eigenvalues ---    0.00059   0.04237
 RFO step:  Lambda=-1.70828147D-05 EMin= 5.85927322D-04
 Quartic linear search produced a step of  0.59045.
 Variable       Old X    -DE/DX   Delta X   Delta X   Delta X     New X
                                 (Linear)    (Quad)   (Total)
   roh        3.77573   0.00074   0.01160   0.01265   0.02425   3.79998
   phi        0.19240  -0.00001  -0.08637   0.12117   0.03480   0.22720
         Item               Value     Threshold  Converged?
 Maximum Force            0.000744     0.000450     NO 
 RMS     Force            0.000526     0.000300     NO 
 Maximum Displacement     0.034801     0.001800     NO 
 RMS     Displacement     0.029994     0.001200     NO 
 Predicted change in Energy=-4.580156D-06
 GradGradGradGradGradGradGradGradGradGradGradGradGradGradGradGradGradGrad

 ---------------------------------------------------------------------------------------------------
                            Z-MATRIX (ANGSTROMS AND DEGREES)
   CD    Cent   Atom    N1       Length/X        N2       Alpha/Y        N3        Beta/Z          J
 ---------------------------------------------------------------------------------------------------
      1      1  C        0  -1.209050         -0.236510         -0.019180
      2      2  C        0   0.089910          0.552930          0.044910
      3      3  O        0   1.222000         -0.262490         -0.110010
      4      4  H        0  -2.067380          0.423870          0.062070
      5      5  H        0  -1.267690         -0.957740          0.792470
      6      6  H        0  -1.276370         -0.778020         -0.956280
      7      7  H        0   0.145550          1.112980          0.976650
      8      8  H        0   0.131480          1.270430         -0.764030
      9      9  H        0   1.273180         -0.870090          0.614760
     10         X        0   1.222000         -0.262490         -0.110010
     11         X        0   2.092530          0.120650          1.387480
     12         X        0   1.543360         -4.077620          4.440830
     13     10  O        9   2.010863(    12)     11   90.000(    25)      3  180.000(    37)      0
     14     11  H       13   0.947400(    13)      9  127.230(    26)     11   13.018(    38)      0
     15     12  H       13   0.947400(    14)     14  105.540(    27)     12    0.000(    39)      0
 ---------------------------------------------------------------------------------------------------
                         Z-Matrix orientation:                         
 ---------------------------------------------------------------------
 Center     Atomic      Atomic             Coordinates (Angstroms)
 Number     Number       Type             X           Y           Z
 ---------------------------------------------------------------------
      1          6           0       -1.209050   -0.236510   -0.019180
      2          6           0        0.089910    0.552930    0.044910
      3          8           0        1.222000   -0.262490   -0.110010
      4          1           0       -2.067380    0.423870    0.062070
      5          1           0       -1.267690   -0.957740    0.792470
      6          1           0       -1.276370   -0.778020   -0.956280
      7          1           0        0.145550    1.112980    0.976650
      8          1           0        0.131480    1.270430   -0.764030
      9          1           0        1.273180   -0.870090    0.614760
     10         -1           0        1.222000   -0.262490   -0.110010
     11         -1           0        2.092530    0.120650    1.387480
     12         -1           0        1.543360   -4.077620    4.440830
     13          8           0        1.381835   -2.160073    2.153496
     14          1           0        1.672227   -1.976063    3.036320
     15          1           0        1.153389   -3.079502    2.147903
 ---------------------------------------------------------------------
                    Distance matrix (angstroms):
                    1          2          3          4          5
     1  C    0.000000
     2  C    1.521388   0.000000
     3  O    2.432885   1.403758   0.000000
     4  H    1.086017   2.161215   3.364628   0.000000
     5  H    1.087376   2.164266   2.737955   1.755515   0.000000
     6  H    1.084399   2.154189   2.687712   1.762746   1.757982
     7  H    2.155862   1.088527   2.057059   2.491664   2.513772
     8  H    2.150044   1.082090   1.991688   2.496816   3.056977
     9  H    2.639085   1.936451   0.947148   3.624795   2.548585
    10  X    2.432885   1.403758   0.000000   3.364628   2.737955
    11  X    3.606478   2.449459   1.774005   4.376472   3.578832
    12  X    6.497813   6.548177   5.947153   7.243921   5.562929
    13  O    3.890154   3.670911   2.958011   4.790398   3.212161
    14  H    4.545755   4.224698   3.610877   5.347009   3.836008
    15  H    4.284853   4.329910   3.610877   5.195928   3.492949
                    6          7          8          9         10
     6  H    0.000000
     7  H    3.055152   0.000000
     8  H    2.493020   1.747843   0.000000
     9  H    2.996139   2.309779   2.790406   0.000000
    10  X    2.687712   2.057059   1.991688   0.947148   0.000000
    11  X    4.201227   2.223563   3.129969   1.499999   1.774005
    12  X    6.925824   6.395056   7.595104   5.000006   5.947153
    13  O    4.318197   3.691374   4.673724   2.010863   2.958011
    14  H    5.105917   4.014371   5.230323   2.691908   3.610877
    15  H    4.564701   4.468162   5.333437   2.691909   3.610877
                   11         12         13         14         15
    11  X    0.000000
    12  X    5.220154   0.000000
    13  O    2.508698   2.989143   0.000000
    14  H    2.700284   2.530967   0.947400   0.000000
    15  H    3.420701   2.530975   0.947400   1.508660   0.000000
 Symmetry turned off by external request.
 Stoichiometry    C2H8O2
 Framework group  C1[X(C2H8O2)]
 Deg. of freedom    30
 Full point group                 C1      NOp   1
 Rotational constants (GHZ):      9.9166945      2.9192112      2.4419493
 Standard basis: 6-31G(d) (6D, 7F)
 Integral buffers will be    131072 words long.
 Raffenetti 1 integral format.
 Two-electron integral symmetry is turned off.
    76 basis functions,   144 primitive gaussians,    76 cartesian basis functions
    18 alpha electrons       18 beta electrons
       nuclear repulsion energy       130.6106862447 Hartrees.
 NAtoms=   12 NActive=   12 NUniq=   12 SFac= 7.50D-01 NAtFMM=   80 NAOKFM=F Big=F
 One-electron integrals computed using PRISM.
 NBasis=    76 RedAO= T  NBF=    76
 NBsUse=    76 1.00D-06 NBFU=    76
 Initial guess read from the read-write file.
 B after Tr=     0.000000    0.000000    0.000000
         Rot=    1.000000    0.000000    0.000000    0.000000 Ang=   0.00 deg.
 Harris functional with IExCor=  205 diagonalized for initial guess.
 ExpMin= 1.61D-01 ExpMax= 5.48D+03 ExpMxC= 8.25D+02 IAcc=1 IRadAn=         1 AccDes= 0.00D+00
 HarFok:  IExCor=  205 AccDes= 0.00D+00 IRadAn=         1 IDoV= 1
 ScaDFX=  1.000000  1.000000  1.000000  1.000000
 FoFCou: FMM=F IPFlag=           0 FMFlag=      100000 FMFlg1=           0
         NFxFlg=           0 DoJE=T BraDBF=F KetDBF=T FulRan=T
         Omega=  0.000000  0.000000  1.000000  0.000000  0.000000 ICntrl=     500 IOpCl=  0
         NMat0=    1 NMatS0=    1 NMatT0=    0 NMatD0=    1 NMtDS0=    0 NMtDT0=    0
         I1Cent=           4 NGrid=           0.
 Symmetry not used in FoFCou.
 Requested convergence on RMS density matrix=1.00D-08 within 128 cycles.
 Requested convergence on MAX density matrix=1.00D-06.
 Requested convergence on             energy=1.00D-06.
 No special actions if energy rises.
 Keep R1 ints in memory in canonical form, NReq=5139081.
 SCF Done:  E(RHF) =  -230.094466015     A.U. after    8 cycles
             Convg  =    0.7560D-08             -V/T =  2.0015
 Calling FoFJK, ICntrl=      2127 FMM=F ISym2X=0 I1Cent= 0 IOpClX= 0 NMat=1 NMatS=1 NMatT=0.
 -------------------------------------------------------------------
 Center     Atomic                   Forces (Hartrees/Bohr)
 Number     Number              X              Y              Z
 -------------------------------------------------------------------
      1        6          -0.000894035   -0.000130268    0.001093256
      2        6           0.005614635   -0.003922933   -0.001119619
      3        8          -0.003857909    0.004697980   -0.002611192
      4        1          -0.000599154    0.000277746   -0.000316408
      5        1           0.000779847    0.000387349   -0.000369444
      6        1           0.000089036    0.000033972   -0.000332455
      7        1          -0.000662033    0.000328190    0.000606393
      8        1          -0.001014618    0.000997260   -0.000173521
      9        1           0.000989707   -0.002632550    0.002596738
     10        8          -0.000845611   -0.001010421    0.002292199
     11        1           0.000738398    0.001521799    0.000134718
     12        1          -0.000338264   -0.000548123   -0.001800663
 -------------------------------------------------------------------
 Cartesian Forces:  Max     0.005614635 RMS     0.001875643
 -----------------------------------------------------------------------------------------------
                       Internal Coordinate Forces (Hartree/Bohr or radian)
  Cent   Atom   N1       Length/X         N2         Alpha/Y        N3         Beta/Z          J
 -----------------------------------------------------------------------------------------------
      1  C           -0.000894(     1)     -0.000130(    16)      0.001093(    31)
      2  C            0.005615(     2)     -0.003923(    17)     -0.001120(    32)
      3  O           -0.002669(     3)      0.004143(    18)     -0.003160(    33)
      4  H           -0.000599(     4)      0.000278(    19)     -0.000316(    34)
      5  H            0.000780(     5)      0.000387(    20)     -0.000369(    35)
      6  H            0.000089(     6)      0.000034(    21)     -0.000332(    36)
      7  H           -0.000662(     7)      0.000328(    22)      0.000606(    37)
      8  H           -0.001015(     8)      0.000997(    23)     -0.000174(    38)
      9  H           -0.000762(     9)     -0.002015(    24)      0.003722(    39)
         X            0.000000(    10)      0.000000(    25)      0.000000(    40)
         X            0.000017(    11)     -0.000075(    26)      0.000078(    41)
         X            0.000100(    12)     -0.000025(    27)     -0.000028(    42)
     10  O        9   0.000479(    13)     11   0.000308(    28)      3   0.002546(    43)     0
     11  H       13   0.000647(    14)      9   0.000443(    29)     11  -0.000038(    44)     0
     12  H       13   0.000624(    15)     14   0.003198(    30)     12  -0.000480(    45)     0
 -----------------------------------------------------------------------------------------------
 Internal  Forces:  Max     0.005614635 RMS     0.001671715

 GradGradGradGradGradGradGradGradGradGradGradGradGradGradGradGradGradGrad
 Berny optimization.
 Search for a local minimum.
 Step number   4 out of a maximum of  100
 All quantities printed in internal units (Hartrees-Bohrs-Radians)
 Update second derivatives using D2CorN and points    2    3    4
 DE= -1.40D-05 DEPred=-4.58D-06 R= 3.05D+00
 SS=  1.41D+00  RLast= 4.24D-02 DXNew= 7.4467D-01 1.2725D-01
 Trust test= 3.05D+00 RLast= 4.24D-02 DXMaxT set to 4.43D-01
 The second derivative matrix:
                          roh       phi
           roh          0.02695
           phi         -0.00384  -0.00154
     Eigenvalues ---   -0.00205   0.02746
 RFO step:  Lambda=-2.05055969D-03 EMin=-2.04914408D-03
 RFO eigenvector is Hessian eigenvector with negative curvature.
 Taking step of -1.00D+00 in eigenvector direction.  Step.Grad= -5.38D-05.
 Quartic linear search produced a step of  1.48438.
 Maximum step size (   0.443) exceeded in Quadratic search.
    -- Step size scaled by   0.443
 Variable       Old X    -DE/DX   Delta X   Delta X   Delta X     New X
                                 (Linear)    (Quad)   (Total)
   roh        3.79998   0.00048   0.03600  -0.05810  -0.02210   3.77788
   phi        0.22720  -0.00004   0.05166  -0.43896  -0.38730  -0.16009
         Item               Value     Threshold  Converged?
 Maximum Force            0.000479     0.000450     NO 
 RMS     Force            0.000340     0.000300     NO 
 Maximum Displacement     0.387299     0.001800     NO 
 RMS     Displacement     0.274308     0.001200     NO 
 Predicted change in Energy=-1.461743D-04
 GradGradGradGradGradGradGradGradGradGradGradGradGradGradGradGradGradGrad

 ---------------------------------------------------------------------------------------------------
                            Z-MATRIX (ANGSTROMS AND DEGREES)
   CD    Cent   Atom    N1       Length/X        N2       Alpha/Y        N3        Beta/Z          J
 ---------------------------------------------------------------------------------------------------
      1      1  C        0  -1.209050         -0.236510         -0.019180
      2      2  C        0   0.089910          0.552930          0.044910
      3      3  O        0   1.222000         -0.262490         -0.110010
      4      4  H        0  -2.067380          0.423870          0.062070
      5      5  H        0  -1.267690         -0.957740          0.792470
      6      6  H        0  -1.276370         -0.778020         -0.956280
      7      7  H        0   0.145550          1.112980          0.976650
      8      8  H        0   0.131480          1.270430         -0.764030
      9      9  H        0   1.273180         -0.870090          0.614760
     10         X        0   1.222000         -0.262490         -0.110010
     11         X        0   2.092530          0.120650          1.387480
     12         X        0   1.543360         -4.077620          4.440830
     13     10  O        9   1.999168(    12)     11   90.000(    25)      3  180.000(    37)      0
     14     11  H       13   0.947400(    13)      9  127.230(    26)     11   -9.173(    38)      0
     15     12  H       13   0.947400(    14)     14  105.540(    27)     12    0.000(    39)      0
 ---------------------------------------------------------------------------------------------------
                         Z-Matrix orientation:                         
 ---------------------------------------------------------------------
 Center     Atomic      Atomic             Coordinates (Angstroms)
 Number     Number       Type             X           Y           Z
 ---------------------------------------------------------------------
      1          6           0       -1.209050   -0.236510   -0.019180
      2          6           0        0.089910    0.552930    0.044910
      3          8           0        1.222000   -0.262490   -0.110010
      4          1           0       -2.067380    0.423870    0.062070
      5          1           0       -1.267690   -0.957740    0.792470
      6          1           0       -1.276370   -0.778020   -0.956280
      7          1           0        0.145550    1.112980    0.976650
      8          1           0        0.131480    1.270430   -0.764030
      9          1           0        1.273180   -0.870090    0.614760
     10         -1           0        1.222000   -0.262490   -0.110010
     11         -1           0        2.092530    0.120650    1.387480
     12         -1           0        1.543360   -4.077620    4.440830
     13          8           0        1.381203   -2.152571    2.144546
     14          1           0        1.919462   -2.075335    2.920355
     15          1           0        0.904889   -2.965224    2.245970
 ---------------------------------------------------------------------
                    Distance matrix (angstroms):
                    1          2          3          4          5
     1  C    0.000000
     2  C    1.521388   0.000000
     3  O    2.432885   1.403758   0.000000
     4  H    1.086017   2.161215   3.364628   0.000000
     5  H    1.087376   2.164266   2.737955   1.755515   0.000000
     6  H    1.084399   2.154189   2.687712   1.762746   1.757982
     7  H    2.155862   1.088527   2.057059   2.491664   2.513772
     8  H    2.150044   1.082090   1.991688   2.496816   3.056977
     9  H    2.639085   1.936451   0.947148   3.624795   2.548585
    10  X    2.432885   1.403758   0.000000   3.364628   2.737955
    11  X    3.606478   2.449459   1.774005   4.376472   3.578832
    12  X    6.497813   6.548177   5.947153   7.243921   5.562929
    13  O    3.881032   3.660006   2.946316   4.781996   3.205053
    14  H    4.670089   4.303861   3.599441   5.505518   3.991848
    15  H    4.128622   4.229215   3.599441   5.008968   3.295869
                    6          7          8          9         10
     6  H    0.000000
     7  H    3.055152   0.000000
     8  H    2.493020   1.747843   0.000000
     9  H    2.996139   2.309779   2.790406   0.000000
    10  X    2.687712   2.057059   1.991688   0.947148   0.000000
    11  X    4.201227   2.223563   3.129969   1.499999   1.774005
    12  X    6.925824   6.395056   7.595104   5.000006   5.947153
    13  O    4.308969   3.681663   4.662463   1.999168   2.946316
    14  H    5.188898   4.134018   5.288262   2.680684   3.599441
    15  H    4.449287   4.338147   5.253478   2.680685   3.599441
                   11         12         13         14         15
    11  X    0.000000
    12  X    5.220154   0.000000
    13  O    2.499334   3.000838   0.000000
    14  H    2.683656   2.542133   0.947400   0.000000
    15  H    3.416155   2.542141   0.947400   1.508660   0.000000
 Symmetry turned off by external request.
 Stoichiometry    C2H8O2
 Framework group  C1[X(C2H8O2)]
 Deg. of freedom    30
 Full point group                 C1      NOp   1
 Rotational constants (GHZ):      9.9404297      2.9401361      2.4486623
 Standard basis: 6-31G(d) (6D, 7F)
 Integral buffers will be    131072 words long.
 Raffenetti 1 integral format.
 Two-electron integral symmetry is turned off.
    76 basis functions,   144 primitive gaussians,    76 cartesian basis functions
    18 alpha electrons       18 beta electrons
       nuclear repulsion energy       130.7444865705 Hartrees.
 NAtoms=   12 NActive=   12 NUniq=   12 SFac= 7.50D-01 NAtFMM=   80 NAOKFM=F Big=F
 One-electron integrals computed using PRISM.
 NBasis=    76 RedAO= T  NBF=    76
 NBsUse=    76 1.00D-06 NBFU=    76
 Initial guess read from the read-write file.
 B after Tr=     0.000000    0.000000    0.000000
         Rot=    1.000000    0.000000    0.000000    0.000000 Ang=   0.00 deg.
 Harris functional with IExCor=  205 diagonalized for initial guess.
 ExpMin= 1.61D-01 ExpMax= 5.48D+03 ExpMxC= 8.25D+02 IAcc=1 IRadAn=         1 AccDes= 0.00D+00
 HarFok:  IExCor=  205 AccDes= 0.00D+00 IRadAn=         1 IDoV= 1
 ScaDFX=  1.000000  1.000000  1.000000  1.000000
 FoFCou: FMM=F IPFlag=           0 FMFlag=      100000 FMFlg1=           0
         NFxFlg=           0 DoJE=T BraDBF=F KetDBF=T FulRan=T
         Omega=  0.000000  0.000000  1.000000  0.000000  0.000000 ICntrl=     500 IOpCl=  0
         NMat0=    1 NMatS0=    1 NMatT0=    0 NMatD0=    1 NMtDS0=    0 NMtDT0=    0
         I1Cent=           4 NGrid=           0.
 Symmetry not used in FoFCou.
 Requested convergence on RMS density matrix=1.00D-08 within 128 cycles.
 Requested convergence on MAX density matrix=1.00D-06.
 Requested convergence on             energy=1.00D-06.
 No special actions if energy rises.
 Keep R1 ints in memory in canonical form, NReq=5139081.
 SCF Done:  E(RHF) =  -230.094395889     A.U. after   12 cycles
             Convg  =    0.4092D-08             -V/T =  2.0015
 Calling FoFJK, ICntrl=      2127 FMM=F ISym2X=0 I1Cent= 0 IOpClX= 0 NMat=1 NMatS=1 NMatT=0.
 -------------------------------------------------------------------
 Center     Atomic                   Forces (Hartrees/Bohr)
 Number     Number              X              Y              Z
 -------------------------------------------------------------------
      1        6          -0.000803813    0.000017229    0.000777425
      2        6           0.005900773   -0.003806111   -0.000893557
      3        8          -0.003978542    0.004835108   -0.002742519
      4        1          -0.000600624    0.000195584   -0.000239459
      5        1           0.000628575    0.000414776   -0.000232023
      6        1           0.000082829    0.000000848   -0.000305312
      7        1          -0.000688950    0.000234803    0.000552449
      8        1          -0.001092073    0.000967375   -0.000216764
      9        1           0.000958072   -0.002629850    0.002530941
     10        8          -0.000835234   -0.001227812    0.002442821
     11        1           0.001156852    0.001487381   -0.000136056
     12        1          -0.000727866   -0.000489330   -0.001537946
 -------------------------------------------------------------------
 Cartesian Forces:  Max     0.005900773 RMS     0.001910402
 -----------------------------------------------------------------------------------------------
                       Internal Coordinate Forces (Hartree/Bohr or radian)
  Cent   Atom   N1       Length/X         N2         Alpha/Y        N3         Beta/Z          J
 -----------------------------------------------------------------------------------------------
      1  C           -0.000804(     1)      0.000017(    16)      0.000777(    31)
      2  C            0.005901(     2)     -0.003806(    17)     -0.000894(    32)
      3  O           -0.002644(     3)      0.004212(    18)     -0.003359(    33)
      4  H           -0.000601(     4)      0.000196(    19)     -0.000239(    34)
      5  H            0.000629(     5)      0.000415(    20)     -0.000232(    35)
      6  H            0.000083(     6)      0.000001(    21)     -0.000305(    36)
      7  H           -0.000689(     7)      0.000235(    22)      0.000552(    37)
      8  H           -0.001092(     8)      0.000967(    23)     -0.000217(    38)
      9  H           -0.000795(     9)     -0.002314(    24)      0.004077(    39)
         X            0.000000(    10)      0.000000(    25)      0.000000(    40)
         X           -0.000105(    11)      0.000155(    26)     -0.000088(    41)
         X            0.000117(    12)     -0.000078(    27)     -0.000073(    42)
     10  O        9   0.000714(    13)     11  -0.000489(    28)      3   0.002857(    43)     0
     11  H       13   0.000667(    14)      9  -0.000273(    29)     11   0.000325(    44)     0
     12  H       13   0.000621(    15)     14   0.002874(    30)     12  -0.000716(    45)     0
 -----------------------------------------------------------------------------------------------
 Internal  Forces:  Max     0.005900773 RMS     0.001718750

 GradGradGradGradGradGradGradGradGradGradGradGradGradGradGradGradGradGrad
 Berny optimization.
 Search for a local minimum.
 Step number   5 out of a maximum of  100
 All quantities printed in internal units (Hartrees-Bohrs-Radians)
 Update second derivatives using D2CorN and points    3    5    4
 DE=  7.01D-05 DEPred=-1.46D-04 R=-4.80D-01
 Trust test=-4.80D-01 RLast= 3.88D-01 DXMaxT set to 2.21D-01
 The second derivative matrix:
                          roh       phi
           roh          0.02377
           phi         -0.00295   0.00123
     Eigenvalues ---    0.00085   0.02415
 RFO step:  Lambda=-1.11019768D-05 EMin= 8.52568331D-04
 Quartic linear search produced a step of -0.97210.
 Variable       Old X    -DE/DX   Delta X   Delta X   Delta X     New X
                                 (Linear)    (Quad)   (Total)
   roh        3.77788   0.00071   0.02148   0.02498   0.04647   3.82435
   phi       -0.16009   0.00032   0.37649   0.03695   0.41344   0.25335
         Item               Value     Threshold  Converged?
 Maximum Force            0.000714     0.000450     NO 
 RMS     Force            0.000554     0.000300     NO 
 Maximum Displacement     0.413441     0.001800     NO 
 RMS     Displacement     0.294188     0.001200     NO 
 Predicted change in Energy=-2.300029D-05
 GradGradGradGradGradGradGradGradGradGradGradGradGradGradGradGradGradGrad

 ---------------------------------------------------------------------------------------------------
                            Z-MATRIX (ANGSTROMS AND DEGREES)
   CD    Cent   Atom    N1       Length/X        N2       Alpha/Y        N3        Beta/Z          J
 ---------------------------------------------------------------------------------------------------
      1      1  C        0  -1.209050         -0.236510         -0.019180
      2      2  C        0   0.089910          0.552930          0.044910
      3      3  O        0   1.222000         -0.262490         -0.110010
      4      4  H        0  -2.067380          0.423870          0.062070
      5      5  H        0  -1.267690         -0.957740          0.792470
      6      6  H        0  -1.276370         -0.778020         -0.956280
      7      7  H        0   0.145550          1.112980          0.976650
      8      8  H        0   0.131480          1.270430         -0.764030
      9      9  H        0   1.273180         -0.870090          0.614760
     10         X        0   1.222000         -0.262490         -0.110010
     11         X        0   2.092530          0.120650          1.387480
     12         X        0   1.543360         -4.077620          4.440830
     13     10  O        9   2.023758(    12)     11   90.000(    25)      3  180.000(    37)      0
     14     11  H       13   0.947400(    13)      9  127.230(    26)     11   14.516(    38)      0
     15     12  H       13   0.947400(    14)     14  105.540(    27)     12    0.000(    39)      0
 ---------------------------------------------------------------------------------------------------
                         Z-Matrix orientation:                         
 ---------------------------------------------------------------------
 Center     Atomic      Atomic             Coordinates (Angstroms)
 Number     Number       Type             X           Y           Z
 ---------------------------------------------------------------------
      1          6           0       -1.209050   -0.236510   -0.019180
      2          6           0        0.089910    0.552930    0.044910
      3          8           0        1.222000   -0.262490   -0.110010
      4          1           0       -2.067380    0.423870    0.062070
      5          1           0       -1.267690   -0.957740    0.792470
      6          1           0       -1.276370   -0.778020   -0.956280
      7          1           0        0.145550    1.112980    0.976650
      8          1           0        0.131480    1.270430   -0.764030
      9          1           0        1.273180   -0.870090    0.614760
     10         -1           0        1.222000   -0.262490   -0.110010
     11         -1           0        2.092530    0.120650    1.387480
     12         -1           0        1.543360   -4.077620    4.440830
     13          8           0        1.382532   -2.168346    2.163363
     14          1           0        1.654351   -1.979963    3.051165
     15          1           0        1.172659   -3.092147    2.152792
 ---------------------------------------------------------------------
                    Distance matrix (angstroms):
                    1          2          3          4          5
     1  C    0.000000
     2  C    1.521388   0.000000
     3  O    2.432885   1.403758   0.000000
     4  H    1.086017   2.161215   3.364628   0.000000
     5  H    1.087376   2.164266   2.737955   1.755515   0.000000
     6  H    1.084399   2.154189   2.687712   1.762746   1.757982
     7  H    2.155862   1.088527   2.057059   2.491664   2.513772
     8  H    2.150044   1.082090   1.991688   2.496816   3.056977
     9  H    2.639085   1.936451   0.947148   3.624795   2.548585
    10  X    2.432885   1.403758   0.000000   3.364628   2.737955
    11  X    3.606478   2.449459   1.774005   4.376472   3.578832
    12  X    6.497813   6.548177   5.947153   7.243921   5.562929
    13  O    3.900228   3.682941   2.970906   4.799678   3.220029
    14  H    4.545956   4.230909   3.623488   5.344566   3.832097
    15  H    4.306351   4.347654   3.623488   5.218366   3.515888
                    6          7          8          9         10
     6  H    0.000000
     7  H    3.055152   0.000000
     8  H    2.493020   1.747843   0.000000
     9  H    2.996139   2.309779   2.790406   0.000000
    10  X    2.687712   2.057059   1.991688   0.947148   0.000000
    11  X    4.201227   2.223563   3.129969   1.499999   1.774005
    12  X    6.925824   6.395056   7.595104   5.000006   5.947153
    13  O    4.328387   3.702095   4.686143   2.023758   2.970906
    14  H    5.108171   4.018257   5.238311   2.704289   3.623488
    15  H    4.584676   4.485683   5.350138   2.704290   3.623488
                   11         12         13         14         15
    11  X    0.000000
    12  X    5.220154   0.000000
    13  O    2.519046   2.976248   0.000000
    14  H    2.715220   2.518661   0.947400   0.000000
    15  H    3.428400   2.518669   0.947400   1.508660   0.000000
 Symmetry turned off by external request.
 Stoichiometry    C2H8O2
 Framework group  C1[X(C2H8O2)]
 Deg. of freedom    30
 Full point group                 C1      NOp   1
 Rotational constants (GHZ):      9.9033249      2.9021496      2.4297406
 Standard basis: 6-31G(d) (6D, 7F)
 Integral buffers will be    131072 words long.
 Raffenetti 1 integral format.
 Two-electron integral symmetry is turned off.
    76 basis functions,   144 primitive gaussians,    76 cartesian basis functions
    18 alpha electrons       18 beta electrons
       nuclear repulsion energy       130.4745214902 Hartrees.
 NAtoms=   12 NActive=   12 NUniq=   12 SFac= 7.50D-01 NAtFMM=   80 NAOKFM=F Big=F
 One-electron integrals computed using PRISM.
 NBasis=    76 RedAO= T  NBF=    76
 NBsUse=    76 1.00D-06 NBFU=    76
 Initial guess read from the read-write file.
 B after Tr=     0.000000    0.000000    0.000000
         Rot=    1.000000    0.000000    0.000000    0.000000 Ang=   0.00 deg.
 Harris functional with IExCor=  205 diagonalized for initial guess.
 ExpMin= 1.61D-01 ExpMax= 5.48D+03 ExpMxC= 8.25D+02 IAcc=1 IRadAn=         1 AccDes= 0.00D+00
 HarFok:  IExCor=  205 AccDes= 0.00D+00 IRadAn=         1 IDoV= 1
 ScaDFX=  1.000000  1.000000  1.000000  1.000000
 FoFCou: FMM=F IPFlag=           0 FMFlag=      100000 FMFlg1=           0
         NFxFlg=           0 DoJE=T BraDBF=F KetDBF=T FulRan=T
         Omega=  0.000000  0.000000  1.000000  0.000000  0.000000 ICntrl=     500 IOpCl=  0
         NMat0=    1 NMatS0=    1 NMatT0=    0 NMatD0=    1 NMtDS0=    0 NMtDT0=    0
         I1Cent=           4 NGrid=           0.
 Symmetry not used in FoFCou.
 Requested convergence on RMS density matrix=1.00D-08 within 128 cycles.
 Requested convergence on MAX density matrix=1.00D-06.
 Requested convergence on             energy=1.00D-06.
 No special actions if energy rises.
 Keep R1 ints in memory in canonical form, NReq=5139081.
 SCF Done:  E(RHF) =  -230.094473309     A.U. after   12 cycles
             Convg  =    0.4935D-08             -V/T =  2.0015
 Calling FoFJK, ICntrl=      2127 FMM=F ISym2X=0 I1Cent= 0 IOpClX= 0 NMat=1 NMatS=1 NMatT=0.
 -------------------------------------------------------------------
 Center     Atomic                   Forces (Hartrees/Bohr)
 Number     Number              X              Y              Z
 -------------------------------------------------------------------
      1        6          -0.000887858   -0.000142413    0.001102878
      2        6           0.005513598   -0.003879666   -0.001102643
      3        8          -0.003793218    0.004576534   -0.002508881
      4        1          -0.000591744    0.000284015   -0.000318405
      5        1           0.000788693    0.000377353   -0.000374818
      6        1           0.000088753    0.000034476   -0.000328368
      7        1          -0.000648863    0.000325930    0.000598376
      8        1          -0.000991467    0.000983601   -0.000172546
      9        1           0.000987684   -0.002683853    0.002669303
     10        8          -0.000863747   -0.000836461    0.002082853
     11        1           0.000698089    0.001494877    0.000140477
     12        1          -0.000299921   -0.000534394   -0.001788225
 -------------------------------------------------------------------
 Cartesian Forces:  Max     0.005513598 RMS     0.001841967
 -----------------------------------------------------------------------------------------------
                       Internal Coordinate Forces (Hartree/Bohr or radian)
  Cent   Atom   N1       Length/X         N2         Alpha/Y        N3         Beta/Z          J
 -----------------------------------------------------------------------------------------------
      1  C           -0.000888(     1)     -0.000142(    16)      0.001103(    31)
      2  C            0.005514(     2)     -0.003880(    17)     -0.001103(    32)
      3  O           -0.002611(     3)      0.004025(    18)     -0.003055(    33)
      4  H           -0.000592(     4)      0.000284(    19)     -0.000318(    34)
      5  H            0.000789(     5)      0.000377(    20)     -0.000375(    35)
      6  H            0.000089(     6)      0.000034(    21)     -0.000328(    36)
      7  H           -0.000649(     7)      0.000326(    22)      0.000598(    37)
      8  H           -0.000991(     8)      0.000984(    23)     -0.000173(    38)
      9  H           -0.000782(     9)     -0.001897(    24)      0.003587(    39)
         X            0.000000(    10)      0.000000(    25)      0.000000(    40)
         X            0.000024(    11)     -0.000089(    26)      0.000088(    41)
         X            0.000097(    12)     -0.000022(    27)     -0.000025(    42)
     10  O        9   0.000228(    13)     11   0.000357(    28)      3   0.002532(    43)     0
[...]
     8  H    2.150044   1.082090   1.991688   2.496816   3.056977
     9  H    2.639085   1.936451   0.947148   3.624795   2.548585
    10  X    2.432885   1.403758   0.000000   3.364628   2.737955
    11  X    3.606478   2.449459   1.774005   4.376472   3.578832
    12  X    6.497813   6.548177   5.947153   7.243921   5.562929
    13  O    3.909534   3.694041   2.982799   4.808251   3.227315
    14  H    4.578148   4.255851   3.635122   5.381069   3.868061
    15  H    4.292267   4.345280   3.635121   5.199215   3.493673
                    6          7          8          9         10
     6  H    0.000000
     7  H    3.055152   0.000000
     8  H    2.493020   1.747843   0.000000
     9  H    2.996139   2.309779   2.790406   0.000000
    10  X    2.687712   2.057059   1.991688   0.947148   0.000000
    11  X    4.201227   2.223563   3.129969   1.499999   1.774005
    12  X    6.925824   6.395056   7.595104   5.000006   5.947153
    13  O    4.337798   3.711995   4.697599   2.035651   2.982799
    14  H    5.134995   4.047057   5.260201   2.715712   3.635122
    15  H    4.575464   4.479190   5.351303   2.715713   3.635121
                   11         12         13         14         15
    11  X    0.000000
    12  X    5.220154   0.000000
    13  O    2.528610   2.964355   0.000000
    14  H    2.721107   2.507317   0.947400   0.000000
    15  H    3.441766   2.507325   0.947400   1.508660   0.000000
 Symmetry turned off by external request.
 Stoichiometry    C2H8O2
 Framework group  C1[X(C2H8O2)]
 Deg. of freedom    30
 Full point group                 C1      NOp   1
 Rotational constants (GHZ):      9.8923108      2.8874900      2.4177914
 Standard basis: 6-31G(d) (6D, 7F)
 Integral buffers will be    131072 words long.
 Raffenetti 1 integral format.
 Two-electron integral symmetry is turned off.
    76 basis functions,   144 primitive gaussians,    76 cartesian basis functions
    18 alpha electrons       18 beta electrons
       nuclear repulsion energy       130.3509504754 Hartrees.
 NAtoms=   12 NActive=   12 NUniq=   12 SFac= 7.50D-01 NAtFMM=   80 NAOKFM=F Big=F
 One-electron integrals computed using PRISM.
 NBasis=    76 RedAO= T  NBF=    76
 NBsUse=    76 1.00D-06 NBFU=    76
 Initial guess read from the read-write file.
 B after Tr=     0.000000    0.000000    0.000000
         Rot=    1.000000    0.000000    0.000000    0.000000 Ang=   0.00 deg.
 Requested convergence on RMS density matrix=1.00D-08 within 128 cycles.
 Requested convergence on MAX density matrix=1.00D-06.
 Requested convergence on             energy=1.00D-06.
 No special actions if energy rises.
 Keep R1 ints in memory in canonical form, NReq=5139081.
 SCF Done:  E(RHF) =  -230.094477616     A.U. after    7 cycles
             Convg  =    0.1290D-08             -V/T =  2.0015
 Calling FoFJK, ICntrl=      2127 FMM=F ISym2X=0 I1Cent= 0 IOpClX= 0 NMat=1 NMatS=1 NMatT=0.
 -------------------------------------------------------------------
 Center     Atomic                   Forces (Hartrees/Bohr)
 Number     Number              X              Y              Z
 -------------------------------------------------------------------
      1        6          -0.000864555   -0.000136594    0.001058577
      2        6           0.005450184   -0.003806618   -0.001031046
      3        8          -0.003743222    0.004468600   -0.002421333
      4        1          -0.000583885    0.000273201   -0.000307165
      5        1           0.000776042    0.000385224   -0.000345362
      6        1           0.000086315    0.000033261   -0.000329180
      7        1          -0.000643882    0.000300261    0.000576961
      8        1          -0.000980036    0.000962404   -0.000182397
      9        1           0.000981195   -0.002739130    0.002729771
     10        8          -0.000877207   -0.000696649    0.001884750
     11        1           0.000750640    0.001473246    0.000096752
     12        1          -0.000351589   -0.000517205   -0.001730329
 -------------------------------------------------------------------
 Cartesian Forces:  Max     0.005450184 RMS     0.001811189
 -----------------------------------------------------------------------------------------------
                       Internal Coordinate Forces (Hartree/Bohr or radian)
  Cent   Atom   N1       Length/X         N2         Alpha/Y        N3         Beta/Z          J
 -----------------------------------------------------------------------------------------------
      1  C           -0.000865(     1)     -0.000137(    16)      0.001059(    31)
      2  C            0.005450(     2)     -0.003807(    17)     -0.001031(    32)
      3  O           -0.002504(     3)      0.003890(    18)     -0.002994(    33)
      4  H           -0.000584(     4)      0.000273(    19)     -0.000307(    34)
      5  H            0.000776(     5)      0.000385(    20)     -0.000345(    35)
      6  H            0.000086(     6)      0.000033(    21)     -0.000329(    36)
      7  H           -0.000644(     7)      0.000300(    22)      0.000577(    37)
      8  H           -0.000980(     8)      0.000962(    23)     -0.000182(    38)
      9  H           -0.000846(     9)     -0.001806(    24)      0.003505(    39)
         X            0.000000(    10)      0.000000(    25)      0.000000(    40)
         X            0.000006(    11)     -0.000067(    26)      0.000080(    41)
         X            0.000104(    12)     -0.000029(    27)     -0.000031(    42)
     10  O        9   0.000000(    13)     11   0.000297(    28)      3   0.002653(    43)     0
     11  H       13   0.000615(    14)      9   0.000373(    29)     11   0.000000(    44)     0
     12  H       13   0.000590(    15)     14   0.003076(    30)     12  -0.000502(    45)     0
 -----------------------------------------------------------------------------------------------
 Internal  Forces:  Max     0.005450184 RMS     0.001603837

 GradGradGradGradGradGradGradGradGradGradGradGradGradGradGradGradGradGrad
 Berny optimization.
 Search for a local minimum.
 Step number  10 out of a maximum of  100
 All quantities printed in internal units (Hartrees-Bohrs-Radians)
 Update second derivatives using D2CorN and points    8   10
 DE= -2.66D-08 DEPred=-2.65D-08 R= 1.00D+00
 Trust test= 1.00D+00 RLast= 7.23D-03 DXMaxT set to 2.21D-01
 The second derivative matrix:
                          roh       phi
           roh          0.00937
           phi         -0.00018   0.00096
     Eigenvalues ---    0.00096   0.00937
 RFO step:  Lambda= 0.00000000D+00 EMin= 9.60277628D-04
 Quartic linear search produced a step of  0.00218.
 Variable       Old X    -DE/DX   Delta X   Delta X   Delta X     New X
                                 (Linear)    (Quad)   (Total)
   roh        3.84682   0.00000   0.00000  -0.00001   0.00000   3.84682
   phi        0.19371   0.00000   0.00002   0.00000   0.00002   0.19373
         Item               Value     Threshold  Converged?
 Maximum Force            0.000000     0.000450     YES
 RMS     Force            0.000000     0.000300     YES
 Maximum Displacement     0.000020     0.001800     YES
 RMS     Displacement     0.000014     0.001200     YES
 Predicted change in Energy=-2.628746D-13
 Optimization completed.
    -- Stationary point found.
                       ----------------------------
                       !   Optimized Parameters   !
                       ! (Angstroms and Degrees)  !
 ----------------------                            ----------------------
 !      Name          Value   Derivative information (Atomic Units)     !
 ------------------------------------------------------------------------
 !       roh         2.0357   -DE/DX =    0.0                           !
 !       phi        11.0989   -DE/DX =    0.0                           !
 ------------------------------------------------------------------------
 GradGradGradGradGradGradGradGradGradGradGradGradGradGradGradGradGradGrad

 ---------------------------------------------------------------------------------------------------
                            Z-MATRIX (ANGSTROMS AND DEGREES)
   CD    Cent   Atom    N1       Length/X        N2       Alpha/Y        N3        Beta/Z          J
 ---------------------------------------------------------------------------------------------------
      1      1  C        0  -1.209050         -0.236510         -0.019180
      2      2  C        0   0.089910          0.552930          0.044910
      3      3  O        0   1.222000         -0.262490         -0.110010
      4      4  H        0  -2.067380          0.423870          0.062070
      5      5  H        0  -1.267690         -0.957740          0.792470
      6      6  H        0  -1.276370         -0.778020         -0.956280
      7      7  H        0   0.145550          1.112980          0.976650
      8      8  H        0   0.131480          1.270430         -0.764030
      9      9  H        0   1.273180         -0.870090          0.614760
     10         X        0   1.222000         -0.262490         -0.110010
     11         X        0   2.092530          0.120650          1.387480
     12         X        0   1.543360         -4.077620          4.440830
     13     10  O        9   2.035651(    12)     11   90.000(    25)      3  180.000(    37)      0
     14     11  H       13   0.947400(    13)      9  127.230(    26)     11   11.099(    38)      0
     15     12  H       13   0.947400(    14)     14  105.540(    27)     12    0.000(    39)      0
 ---------------------------------------------------------------------------------------------------
                         Z-Matrix orientation:                         
 ---------------------------------------------------------------------
 Center     Atomic      Atomic             Coordinates (Angstroms)
 Number     Number       Type             X           Y           Z
 ---------------------------------------------------------------------
      1          6           0       -1.209050   -0.236510   -0.019180
      2          6           0        0.089910    0.552930    0.044910
      3          8           0        1.222000   -0.262490   -0.110010
      4          1           0       -2.067380    0.423870    0.062070
      5          1           0       -1.267690   -0.957740    0.792470
      6          1           0       -1.276370   -0.778020   -0.956280
      7          1           0        0.145550    1.112980    0.976650
      8          1           0        0.131480    1.270430   -0.764030
      9          1           0        1.273180   -0.870090    0.614760
     10         -1           0        1.222000   -0.262490   -0.110010
     11         -1           0        2.092530    0.120650    1.387480
     12         -1           0        1.543360   -4.077620    4.440830
     13          8           0        1.383174   -2.175975    2.172463
     14          1           0        1.697100   -1.998118    3.048468
     15          1           0        1.131195   -3.089250    2.173690
 ---------------------------------------------------------------------
                    Distance matrix (angstroms):
                    1          2          3          4          5
     1  C    0.000000
     2  C    1.521388   0.000000
     3  O    2.432885   1.403758   0.000000
     4  H    1.086017   2.161215   3.364628   0.000000
     5  H    1.087376   2.164266   2.737955   1.755515   0.000000
     6  H    1.084399   2.154189   2.687712   1.762746   1.757982
     7  H    2.155862   1.088527   2.057059   2.491664   2.513772
     8  H    2.150044   1.082090   1.991688   2.496816   3.056977
     9  H    2.639085   1.936451   0.947148   3.624795   2.548585
    10  X    2.432885   1.403758   0.000000   3.364628   2.737955
    11  X    3.606478   2.449459   1.774005   4.376472   3.578832
    12  X    6.497813   6.548177   5.947153   7.243921   5.562929
    13  O    3.909534   3.694041   2.982799   4.808251   3.227315
    14  H    4.578148   4.255851   3.635122   5.381069   3.868061
    15  H    4.292267   4.345280   3.635121   5.199215   3.493673
                    6          7          8          9         10
     6  H    0.000000
     7  H    3.055152   0.000000
     8  H    2.493020   1.747843   0.000000
     9  H    2.996139   2.309779   2.790406   0.000000
    10  X    2.687712   2.057059   1.991688   0.947148   0.000000
    11  X    4.201227   2.223563   3.129969   1.499999   1.774005
    12  X    6.925824   6.395056   7.595104   5.000006   5.947153
    13  O    4.337798   3.711995   4.697599   2.035651   2.982799
    14  H    5.134995   4.047057   5.260201   2.715712   3.635122
    15  H    4.575464   4.479190   5.351303   2.715713   3.635121
                   11         12         13         14         15
    11  X    0.000000
    12  X    5.220154   0.000000
    13  O    2.528610   2.964355   0.000000
    14  H    2.721107   2.507317   0.947400   0.000000
    15  H    3.441766   2.507325   0.947400   1.508660   0.000000
 Symmetry turned off by external request.
 Stoichiometry    C2H8O2
 Framework group  C1[X(C2H8O2)]
 Deg. of freedom    30
 Full point group                 C1      NOp   1
 Rotational constants (GHZ):      9.8923108      2.8874900      2.4177914

 **********************************************************************

            Population analysis using the SCF density.

 **********************************************************************

 Alpha  occ. eigenvalues --  -20.58761 -20.52054 -11.25158 -11.19953  -1.37524
 Alpha  occ. eigenvalues --   -1.33090  -0.99414  -0.83129  -0.74229  -0.67184
 Alpha  occ. eigenvalues --   -0.60789  -0.60154  -0.57952  -0.52748  -0.52519
 Alpha  occ. eigenvalues --   -0.50763  -0.45477  -0.41131
 Alpha virt. eigenvalues --    0.18660   0.26464   0.28737   0.31082   0.32222
 Alpha virt. eigenvalues --    0.33189   0.35793   0.36181   0.42892   0.47438
 Alpha virt. eigenvalues --    0.74510   0.76420   0.80636   0.83934   0.91405
 Alpha virt. eigenvalues --    0.93384   1.00534   1.09010   1.13124   1.14328
 Alpha virt. eigenvalues --    1.15108   1.18996   1.20454   1.21745   1.22441
 Alpha virt. eigenvalues --    1.25075   1.29893   1.32196   1.36651   1.39042
 Alpha virt. eigenvalues --    1.40809   1.62110   1.65336   1.74302   1.81539
 Alpha virt. eigenvalues --    1.87314   2.00143   2.03495   2.06183   2.13029
 Alpha virt. eigenvalues --    2.13948   2.23919   2.29863   2.46981   2.49457
 Alpha virt. eigenvalues --    2.58191   2.60967   2.66988   2.74034   2.79000
 Alpha virt. eigenvalues --    2.93636   2.94121   3.02026   3.23546   4.04525
 Alpha virt. eigenvalues --    4.34609   4.61966   4.84214
          Condensed to atoms (all electrons):
              1          2          3          4          5          6
     1  C    5.171101   0.347513  -0.054023   0.370917   0.385919   0.387443
     2  C    0.347513   4.711309   0.232865  -0.032937  -0.033954  -0.034653
     3  O   -0.054023   0.232865   8.429947   0.003391  -0.000376   0.002122
     4  H    0.370917  -0.032937   0.003391   0.562162  -0.027298  -0.024998
     5  H    0.385919  -0.033954  -0.000376  -0.027298   0.548016  -0.029524
     6  H    0.387443  -0.034653   0.002122  -0.024998  -0.029524   0.530419
     7  H   -0.055956   0.399374  -0.039615   0.001292  -0.004529   0.004943
     8  H   -0.047312   0.411545  -0.040774  -0.000622   0.004345  -0.004637
     9  H   -0.002870  -0.022663   0.253720  -0.000025   0.002363  -0.000296
    10  O   -0.000739   0.000906  -0.005566   0.000005   0.001850   0.000004
    11  H    0.000011  -0.000029   0.000274   0.000000  -0.000011   0.000000
    12  H    0.000043  -0.000033   0.000277   0.000000   0.000003  -0.000001
              7          8          9         10         11         12
     1  C   -0.055956  -0.047312  -0.002870  -0.000739   0.000011   0.000043
     2  C    0.399374   0.411545  -0.022663   0.000906  -0.000029  -0.000033
     3  O   -0.039615  -0.040774   0.253720  -0.005566   0.000274   0.000277
     4  H    0.001292  -0.000622  -0.000025   0.000005   0.000000   0.000000
     5  H   -0.004529   0.004345   0.002363   0.001850  -0.000011   0.000003
     6  H    0.004943  -0.004637  -0.000296   0.000004   0.000000  -0.000001
     7  H    0.612587  -0.041347  -0.003864   0.000074  -0.000004  -0.000006
     8  H   -0.041347   0.556932   0.005044  -0.000004   0.000001   0.000001
     9  H   -0.003864   0.005044   0.262683   0.015759  -0.000324  -0.000319
    10  O    0.000074  -0.000004   0.015759   8.332639   0.267965   0.268086
    11  H   -0.000004   0.000001  -0.000324   0.267965   0.299561  -0.016799
    12  H   -0.000006   0.000001  -0.000319   0.268086  -0.016799   0.298758
 Mulliken atomic charges:
              1
     1  C   -0.502047
     2  C    0.020757
     3  O   -0.782242
     4  H    0.148114
     5  H    0.153199
     6  H    0.169179
     7  H    0.127051
     8  H    0.156829
     9  H    0.490794
    10  O   -0.880980
    11  H    0.449354
    12  H    0.449992
 Sum of Mulliken atomic charges =   0.00000
 Mulliken charges with hydrogens summed into heavy atoms:
              1
     1  C   -0.031555
     2  C    0.304637
     3  O   -0.291448
    10  O    0.018367
 Sum of Mulliken charges with hydrogens summed into heavy atoms =   0.00000
 Electronic spatial extent (au):  <R**2>=            632.0933
 Charge=              0.0000 electrons
 Dipole moment (field-independent basis, Debye):
    X=             -0.8512    Y=             -1.9998    Z=              3.4359  Tot=              4.0656
 Quadrupole moment (field-independent basis, Debye-Ang):
   XX=            -28.7522   YY=            -16.5716   ZZ=            -16.1946
   XY=             -2.9653   XZ=              5.9122   YZ=             -8.5561
 Traceless Quadrupole moment (field-independent basis, Debye-Ang):
   XX=             -8.2461   YY=              3.9345   ZZ=              4.3116
   XY=             -2.9653   XZ=              5.9122   YZ=             -8.5561
 Octapole moment (field-independent basis, Debye-Ang**2):
  XXX=            -23.8831  YYY=              5.9542  ZZZ=             -6.2015  XYY=              3.1102
  XXY=             11.3414  XXZ=             -5.1617  XZZ=             11.2347  YZZ=            -12.0761
  YYZ=             11.6196  XYZ=            -12.0486
 Hexadecapole moment (field-independent basis, Debye-Ang**3):
 XXXX=           -242.6776 YYYY=           -124.7542 ZZZZ=           -103.5123 XXXY=             52.6506
 XXXZ=            -45.9525 YYYX=             20.4821 YYYZ=              6.1937 ZZZX=              8.0177
 ZZZY=              8.8466 XXYY=            -72.0371 XXZZ=            -47.0928 YYZZ=             -5.6065
 XXYZ=             15.3710 YYXZ=             12.1042 ZZXY=            -21.2775
 N-N= 1.303509504754D+02 E-N=-8.031888788393D+02  KE= 2.297386218498D+02
 1\1\GINC-BLOGIN2\FOpt\RHF\6-31G(d)\C2H8O2\RUPAKHETIC\23-Jun-2017\1\\#H
 F/6-31G* nosymm SCF=Tight opt=(Z-MATRIX,MaxCycle=200)\\Mol-Water Dimer
 \\0,1\C,0,-1.20905,-0.23651,-0.01918\C,0,0.08991,0.55293,0.04491\O,0,1
 .222,-0.26249,-0.11001\H,0,-2.06738,0.42387,0.06207\H,0,-1.26769,-0.95
 774,0.79247\H,0,-1.27637,-0.77802,-0.95628\H,0,0.14555,1.11298,0.97665
 \H,0,0.13148,1.27043,-0.76403\H,0,1.27318,-0.87009,0.61476\X,0,1.222,-
 0.26249,-0.11001\X,0,2.09253,0.12065,1.38748\X,0,1.54336,-4.07762,4.44
 083\O,9,roh,11,90.,3,180.,0\H,13,0.9474,9,127.2302,11,phi,0\H,13,0.947
 4,14,105.5395,12,0.,0\\roh=2.03565086\phi=11.09893628\\Version=EM64L-G
 09RevA.02\HF=-230.0944776\RMSD=1.290e-09\RMSF=1.811e-03\Dipole=-0.3348
 903,-0.786766,1.3517828\Quadrupole=-6.1307704,2.9252353,3.2055351,-2.2
 046488,4.3955965,-6.3612743\PG=C01 [X(C2H8O2)]\\@


 THE CAUTIOUS SELDOM ERR...CONFUCIUS                   
 Job cpu time:  0 days  0 hours  1 minutes 55.9 seconds.
 File lengths (MBytes):  RWF=     67 Int=      0 D2E=      0 Chk=      2 Scr=      2
 Normal termination of Gaussian 09 at Fri Jun 23 12:05:39 2017.
