 Entering Gaussian System, Link 0=/homes/huanglei/prog/g09/g09
 Initial command:
 /homes/huanglei/prog/g09/l1.exe /lcrc/project/Drude/chetan/tmp/0/Gau-65477.inp -scrdir=/lcrc/project/Drude/chetan/tmp/0/
 Entering Link 1 = /homes/huanglei/prog/g09/l1.exe PID=     65479.
  
 Copyright (c) 1988,1990,1992,1993,1995,1998,2003,2009, Gaussian, Inc.
                  All Rights Reserved.
  
 This is part of the Gaussian(R) 09 program.  It is based on
 the Gaussian(R) 03 system (copyright 2003, Gaussian, Inc.),
 the Gaussian(R) 98 system (copyright 1998, Gaussian, Inc.),
 the Gaussian(R) 94 system (copyright 1995, Gaussian, Inc.),
 the Gaussian 92(TM) system (copyright 1992, Gaussian, Inc.),
 the Gaussian 90(TM) system (copyright 1990, Gaussian, Inc.),
 the Gaussian 88(TM) system (copyright 1988, Gaussian, Inc.),
 the Gaussian 86(TM) system (copyright 1986, Carnegie Mellon
 University), and the Gaussian 82(TM) system (copyright 1983,
 Carnegie Mellon University). Gaussian is a federally registered
 trademark of Gaussian, Inc.
  
 This software contains proprietary and confidential information,
 including trade secrets, belonging to Gaussian, Inc.
  
 This software is provided under written license and may be
 used, copied, transmitted, or stored only in accord with that
 written license.
  
 The following legend is applicable only to US Government
 contracts under FAR:
  
                    RESTRICTED RIGHTS LEGEND
  
 Use, reproduction and disclosure by the US Government is
 subject to restrictions as set forth in subparagraphs (a)
 and (c) of the Commercial Computer Software - Restricted
 Rights clause in FAR 52.227-19.
  
 Gaussian, Inc.
 340 Quinnipiac St., Bldg. 40, Wallingford CT 06492
  
  
 ---------------------------------------------------------------
 Warning -- This program may not be used in any manner that
 competes with the business of Gaussian, Inc. or will provide
 assistance to any competitor of Gaussian, Inc.  The licensee
 of this program is prohibited from giving any competitor of
 Gaussian, Inc. access to this program.  By using this program,
 the user acknowledges that Gaussian, Inc. is engaged in the
 business of creating and licensing software in the field of
 computational chemistry and represents and warrants to the
 licensee that it is not a competitor of Gaussian, Inc. and that
 it will not use this program in any manner prohibited above.
 ---------------------------------------------------------------
  

 Cite this work as:
 Gaussian 09, Revision A.02,
 M. J. Frisch, G. W. Trucks, H. B. Schlegel, G. E. Scuseria, 
 M. A. Robb, J. R. Cheeseman, G. Scalmani, V. Barone, B. Mennucci, 
 G. A. Petersson, H. Nakatsuji, M. Caricato, X. Li, H. P. Hratchian, 
 A. F. Izmaylov, J. Bloino, G. Zheng, J. L. Sonnenberg, M. Hada, 
 M. Ehara, K. Toyota, R. Fukuda, J. Hasegawa, M. Ishida, T. Nakajima, 
 Y. Honda, O. Kitao, H. Nakai, T. Vreven, J. A. Montgomery, Jr., 
 J. E. Peralta, F. Ogliaro, M. Bearpark, J. J. Heyd, E. Brothers, 
 K. N. Kudin, V. N. Staroverov, R. Kobayashi, J. Normand, 
 K. Raghavachari, A. Rendell, J. C. Burant, S. S. Iyengar, J. Tomasi, 
 M. Cossi, N. Rega, J. M. Millam, M. Klene, J. E. Knox, J. B. Cross, 
 V. Bakken, C. Adamo, J. Jaramillo, R. Gomperts, R. E. Stratmann, 
 O. Yazyev, A. J. Austin, R. Cammi, C. Pomelli, J. W. Ochterski, 
 R. L. Martin, K. Morokuma, V. G. Zakrzewski, G. A. Voth, 
 P. Salvador, J. J. Dannenberg, S. Dapprich, A. D. Daniels, 
 O. Farkas, J. B. Foresman, J. V. Ortiz, J. Cioslowski, 
 and D. J. Fox, Gaussian, Inc., Wallingford CT, 2009.
 
 ******************************************
 Gaussian 09:  EM64L-G09RevA.02 11-Jun-2009
                23-Jun-2017 
 ******************************************
 %mem=1GB
 %nproc=12
 Will use up to   12 processors via shared memory.
 -------------------------------------------------------
 #HF/6-31G* nosymm SCF=Tight opt=(Z-MATRIX,MaxCycle=200)
 -------------------------------------------------------
 1/6=200,10=7,18=40,38=1/1,3;
 2/12=2,15=1,17=6,18=5,29=3,40=1/2;
 3/5=1,6=6,7=1,11=9,16=1,25=1,30=1,71=1/1,2,3;
 4//1;
 5/5=2,32=2,38=5/2;
 6/7=2,8=2,9=2,10=2,28=1/1;
 7/29=1,30=1/1,2,3,16;
 1/6=200,10=7,18=40/3(2);
 2/15=1,29=3/2;
 99//99;
 2/15=1,29=3/2;
 3/5=1,6=6,7=1,11=9,16=1,25=1,30=1,71=1/1,2,3;
 4/5=5,16=3/1;
 5/5=2,32=2,38=5/2;
 7/30=1/1,2,3,16;
 1/6=200,18=40/3(-5);
 2/15=1,29=3/2;
 6/7=2,8=2,9=2,10=2,19=2,28=1/1;
 99/9=1/99;
 ---------------
 Mol-Water Dimer
 ---------------
 Symbolic Z-matrix:
 Charge =  0 Multiplicity = 1
 C                    -1.20905  -0.23651  -0.01918 
 C                     0.08991   0.55293   0.04491 
 O99                   1.222    -0.26249  -0.11001 
 H                    -2.06738   0.42387   0.06207 
 H                    -1.26769  -0.95774   0.79247 
 H                    -1.27637  -0.77802  -0.95628 
 H                     0.14555   1.11298   0.97665 
 H                     0.13148   1.27043  -0.76403 
 H                     1.27318  -0.87009   0.61476 
 X1                    0.2457   -0.34115   1.02606 
 X2                    2.04135   0.72825   0.66271 
 H1W                  O99  roh      X2    90.      X1    180.     0
 X3                   H1W   1.5      O99   90.      X2    0.       0
 O1W                  H1W   0.9474   X3    90.      X2    180.     0
 H2W                  O1W   0.9474   H1W   105.5395  X3   phi      0
       Variables:
  roh                   1.9927                   
  phi                -140.03565                  
 

 GradGradGradGradGradGradGradGradGradGradGradGradGradGradGradGradGradGrad
 Berny optimization.
 Initialization pass.
                       ----------------------------
                       !    Initial Parameters    !
                       ! (Angstroms and Degrees)  !
 ----------------------                            ----------------------
 !      Name          Value   Derivative information (Atomic Units)     !
 ------------------------------------------------------------------------
 !       roh         1.9927   estimate D2E/DX2                          !
 !       phi      -140.0357   estimate D2E/DX2                          !
 ------------------------------------------------------------------------
 Trust Radius=3.00D-01 FncErr=1.00D-07 GrdErr=1.00D-07
 Number of steps in this run= 100 maximum allowed number of steps= 100.
 GradGradGradGradGradGradGradGradGradGradGradGradGradGradGradGradGradGrad

 ---------------------------------------------------------------------------------------------------
                            Z-MATRIX (ANGSTROMS AND DEGREES)
   CD    Cent   Atom    N1       Length/X        N2       Alpha/Y        N3        Beta/Z          J
 ---------------------------------------------------------------------------------------------------
      1      1  C        0  -1.209050         -0.236510         -0.019180
      2      2  C        0   0.089910          0.552930          0.044910
      3      3  O        0   1.222000         -0.262490         -0.110010
      4      4  H        0  -2.067380          0.423870          0.062070
      5      5  H        0  -1.267690         -0.957740          0.792470
      6      6  H        0  -1.276370         -0.778020         -0.956280
      7      7  H        0   0.145550          1.112980          0.976650
      8      8  H        0   0.131480          1.270430         -0.764030
      9      9  H        0   1.273180         -0.870090          0.614760
     10         X        0   0.245700         -0.341150          1.026060
     11         X        0   2.041350          0.728250          0.662710
     12     10  H        3   1.992700(    11)     11   90.000(    24)     10  180.000(    36)      0
     13         X       12   1.500000(    12)      3   90.000(    25)     11    0.000(    37)      0
     14     11  O       12   0.947400(    13)     13   90.000(    26)     11  180.000(    38)      0
     15     12  H       14   0.947400(    14)     12  105.540(    27)     13 -140.036(    39)      0
 ---------------------------------------------------------------------------------------------------
                         Z-Matrix orientation:                         
 ---------------------------------------------------------------------
 Center     Atomic      Atomic             Coordinates (Angstroms)
 Number     Number       Type             X           Y           Z
 ---------------------------------------------------------------------
      1          6           0       -1.209050   -0.236510   -0.019180
      2          6           0        0.089910    0.552930    0.044910
      3          8           0        1.222000   -0.262490   -0.110010
      4          1           0       -2.067380    0.423870    0.062070
      5          1           0       -1.267690   -0.957740    0.792470
      6          1           0       -1.276370   -0.778020   -0.956280
      7          1           0        0.145550    1.112980    0.976650
      8          1           0        0.131480    1.270430   -0.764030
      9          1           0        1.273180   -0.870090    0.614760
     10         -1           0        0.245700   -0.341150    1.026060
     11         -1           0        2.041350    0.728250    0.662710
     12          1           0        2.518981   -0.157992   -1.619239
     13         -1           0        3.338332    0.832748   -0.846519
     14          8           0        3.135612   -0.108310   -2.336780
     15          1           0        2.609549   -0.117950   -3.124646
 ---------------------------------------------------------------------
                    Distance matrix (angstroms):
                    1          2          3          4          5
     1  C    0.000000
     2  C    1.521388   0.000000
     3  O    2.432885   1.403758   0.000000
     4  H    1.086017   2.161215   3.364628   0.000000
     5  H    1.087376   2.164266   2.737955   1.755515   0.000000
     6  H    1.084399   2.154189   2.687712   1.762746   1.757982
     7  H    2.155862   1.088527   2.057059   2.491664   2.513772
     8  H    2.150044   1.082090   1.991688   2.496816   3.056977
     9  H    2.639085   1.936451   0.947148   3.624795   2.548585
    10  X    1.794373   1.336527   1.500001   2.620090   1.650787
    11  X    3.458444   2.054393   1.499999   4.163541   3.716066
    12  H    4.057656   3.029058   1.992700   4.919357   4.560134
    13  X    4.744100   3.380117   2.494164   5.496766   5.206493
    14  O    4.925829   3.922498   2.940100   5.754027   5.468346
    15  H    4.923381   4.104235   3.321779   5.685279   5.575126
                    6          7          8          9         10
     6  H    0.000000
     7  H    3.055152   0.000000
     8  H    2.493020   1.747843   0.000000
     9  H    2.996139   2.309779   2.790406   0.000000
    10  X    2.537169   1.458412   2.411360   1.226646   0.000000
    11  X    3.987135   1.959753   2.444821   1.774000   2.121320
    12  H    3.902389   3.739945   2.910659   2.655157   3.492701
    13  X    4.888977   3.687320   3.237633   3.049565   3.801179
    14  O    4.671175   4.627185   3.660502   3.572191   4.440101
    15  H    4.498652   4.940355   3.693363   4.041628   4.781837
                   11         12         13         14         15
    11  X    0.000000
    12  H    2.494163   0.000000
    13  X    1.992700   1.500000   0.000000
    14  O    3.300634   0.947400   1.774138   0.000000
    15  H    3.922113   1.508660   2.573871   0.947400   0.000000
 Symmetry turned off by external request.
 Stoichiometry    C2H8O2
 Framework group  C1[X(C2H8O2)]
 Deg. of freedom    30
 Full point group                 C1      NOp   1
 Rotational constants (GHZ):     17.0301534      2.1508843      2.0783226
 Standard basis: 6-31G(d) (6D, 7F)
 Integral buffers will be    131072 words long.
 Raffenetti 1 integral format.
 Two-electron integral symmetry is turned off.
    76 basis functions,   144 primitive gaussians,    76 cartesian basis functions
    18 alpha electrons       18 beta electrons
       nuclear repulsion energy       128.5906705472 Hartrees.
 NAtoms=   12 NActive=   12 NUniq=   12 SFac= 7.50D-01 NAtFMM=   80 NAOKFM=F Big=F
 One-electron integrals computed using PRISM.
 NBasis=    76 RedAO= T  NBF=    76
 NBsUse=    76 1.00D-06 NBFU=    76
 Harris functional with IExCor=  205 diagonalized for initial guess.
 ExpMin= 1.61D-01 ExpMax= 5.48D+03 ExpMxC= 8.25D+02 IAcc=1 IRadAn=         1 AccDes= 0.00D+00
 HarFok:  IExCor=  205 AccDes= 0.00D+00 IRadAn=         1 IDoV= 1
 ScaDFX=  1.000000  1.000000  1.000000  1.000000
 FoFCou: FMM=F IPFlag=           0 FMFlag=      100000 FMFlg1=           0
         NFxFlg=           0 DoJE=T BraDBF=F KetDBF=T FulRan=T
         Omega=  0.000000  0.000000  1.000000  0.000000  0.000000 ICntrl=     500 IOpCl=  0
         NMat0=    1 NMatS0=    1 NMatT0=    0 NMatD0=    1 NMtDS0=    0 NMtDT0=    0
         I1Cent=           4 NGrid=           0.
 Symmetry not used in FoFCou.
 Requested convergence on RMS density matrix=1.00D-08 within 128 cycles.
 Requested convergence on MAX density matrix=1.00D-06.
 Requested convergence on             energy=1.00D-06.
 No special actions if energy rises.
 Keep R1 ints in memory in canonical form, NReq=5139081.
 SCF Done:  E(RHF) =  -230.094109465     A.U. after   12 cycles
             Convg  =    0.6493D-08             -V/T =  2.0015

 **********************************************************************

            Population analysis using the SCF density.

 **********************************************************************

 Alpha  occ. eigenvalues --  -20.57960 -20.51977 -11.28689 -11.22735  -1.38594
 Alpha  occ. eigenvalues --   -1.31089  -1.02705  -0.86720  -0.71530  -0.68272
 Alpha  occ. eigenvalues --   -0.64080  -0.62302  -0.56423  -0.54537  -0.53171
 Alpha  occ. eigenvalues --   -0.49461  -0.46426  -0.45719
 Alpha virt. eigenvalues --    0.20290   0.25536   0.25941   0.28964   0.30032
 Alpha virt. eigenvalues --    0.31013   0.33017   0.38419   0.40905   0.44799
 Alpha virt. eigenvalues --    0.71570   0.73610   0.77678   0.79987   0.88490
 Alpha virt. eigenvalues --    0.90668   1.05235   1.07899   1.13692   1.14894
 Alpha virt. eigenvalues --    1.16504   1.17457   1.18459   1.19738   1.20630
 Alpha virt. eigenvalues --    1.21708   1.23379   1.28339   1.33890   1.43442
 Alpha virt. eigenvalues --    1.43601   1.59116   1.67758   1.72007   1.80419
 Alpha virt. eigenvalues --    1.94131   2.02045   2.05688   2.06384   2.09108
 Alpha virt. eigenvalues --    2.09989   2.21129   2.26461   2.42865   2.45145
 Alpha virt. eigenvalues --    2.54729   2.62330   2.69313   2.73328   2.75546
 Alpha virt. eigenvalues --    2.86815   2.98485   3.03447   3.17979   4.09625
 Alpha virt. eigenvalues --    4.30185   4.59987   4.81433
          Condensed to atoms (all electrons):
              1          2          3          4          5          6
     1  C    5.159825   0.346405  -0.052053   0.377694   0.387069   0.387995
     2  C    0.346405   4.761060   0.203567  -0.032587  -0.035700  -0.034976
     3  O   -0.052053   0.203567   8.395884   0.003174  -0.000635   0.001888
     4  H    0.377694  -0.032587   0.003174   0.533566  -0.025774  -0.023294
     5  H    0.387069  -0.035700  -0.000635  -0.025774   0.545853  -0.029090
     6  H    0.387995  -0.034976   0.001888  -0.023294  -0.029090   0.520213
     7  H   -0.053793   0.404151  -0.037238   0.000963  -0.004226   0.004619
     8  H   -0.045383   0.409820  -0.039054  -0.000821   0.004213  -0.004307
     9  H   -0.003235  -0.023942   0.261333  -0.000054   0.003227  -0.000371
    10  H    0.000165  -0.001287   0.022031  -0.000004  -0.000008   0.000038
    11  O   -0.000015   0.000234  -0.007503   0.000000   0.000000  -0.000002
    12  H   -0.000001   0.000002   0.000330   0.000000   0.000000   0.000004
              7          8          9         10         11         12
     1  C   -0.053793  -0.045383  -0.003235   0.000165  -0.000015  -0.000001
     2  C    0.404151   0.409820  -0.023942  -0.001287   0.000234   0.000002
     3  O   -0.037238  -0.039054   0.261333   0.022031  -0.007503   0.000330
     4  H    0.000963  -0.000821  -0.000054  -0.000004   0.000000   0.000000
     5  H   -0.004226   0.004213   0.003227  -0.000008   0.000000   0.000000
     6  H    0.004619  -0.004307  -0.000371   0.000038  -0.000002   0.000004
     7  H    0.574863  -0.036779  -0.004531   0.000183  -0.000013   0.000001
     8  H   -0.036779   0.532549   0.005687  -0.000768   0.000492   0.000031
     9  H   -0.004531   0.005687   0.314656  -0.000822   0.000348  -0.000008
    10  H    0.000183  -0.000768  -0.000822   0.251484   0.260408  -0.017016
    11  O   -0.000013   0.000492   0.000348   0.260408   8.403874   0.266573
    12  H    0.000001   0.000031  -0.000008  -0.017016   0.266573   0.331465
 Mulliken atomic charges:
              1
     1  C   -0.504673
     2  C    0.003253
     3  O   -0.751724
     4  H    0.167136
     5  H    0.155071
     6  H    0.177283
     7  H    0.151800
     8  H    0.174321
     9  H    0.447713
    10  H    0.485596
    11  O   -0.924396
    12  H    0.418619
 Sum of Mulliken atomic charges =   0.00000
 Mulliken charges with hydrogens summed into heavy atoms:
              1
     1  C   -0.005183
     2  C    0.329374
     3  O   -0.304011
    11  O   -0.020181
 Sum of Mulliken charges with hydrogens summed into heavy atoms =   0.00000
 Electronic spatial extent (au):  <R**2>=            745.2008
 Charge=              0.0000 electrons
 Dipole moment (field-independent basis, Debye):
    X=             -3.8494    Y=             -0.2256    Z=              1.7022  Tot=              4.2150
 Quadrupole moment (field-independent basis, Debye-Ang):
   XX=            -42.6873   YY=            -25.5297   ZZ=            -23.6302
   XY=             -1.0959   XZ=              7.9962   YZ=             -1.3289
 Traceless Quadrupole moment (field-independent basis, Debye-Ang):
   XX=            -12.0715   YY=              5.0860   ZZ=              6.9855
   XY=             -1.0959   XZ=              7.9962   YZ=             -1.3289
 Octapole moment (field-independent basis, Debye-Ang**2):
  XXX=           -119.1571  YYY=              0.3862  ZZZ=             31.3036  XYY=            -18.9605
  XXY=              0.1925  XXZ=             50.5279  XZZ=            -24.8309  YZZ=             -0.8632
  YYZ=             18.0611  XYZ=             -2.0968
 Hexadecapole moment (field-independent basis, Debye-Ang**3):
 XXXX=           -772.3075 YYYY=            -58.6960 ZZZZ=           -177.3780 XXXY=              4.8929
 XXXZ=            285.2641 YYYX=              3.1186 YYYZ=             -7.9645 ZZZX=            130.5958
 ZZZY=             -3.8741 XXYY=           -102.7025 XXZZ=           -188.7884 YYZZ=            -54.4805
 XXYZ=             -6.6131 YYXZ=             53.7691 ZZXY=              1.4877
 N-N= 1.285906705472D+02 E-N=-7.992798645160D+02  KE= 2.297581054242D+02
 Calling FoFJK, ICntrl=      2127 FMM=F ISym2X=0 I1Cent= 0 IOpClX= 0 NMat=1 NMatS=1 NMatT=0.
 -------------------------------------------------------------------
 Center     Atomic                   Forces (Hartrees/Bohr)
 Number     Number              X              Y              Z
 -------------------------------------------------------------------
      1        6           0.000573658   -0.000830714    0.000017800
      2        6          -0.004601802    0.004366132    0.000042480
      3        8          -0.000613096   -0.001614717    0.001316965
      4        1           0.000581242    0.000060624   -0.000040411
      5        1          -0.000068817    0.000103254   -0.000142447
      6        1          -0.000263971   -0.000073239   -0.000020807
      7        1           0.001006825   -0.000773125   -0.000794846
      8        1           0.000233058    0.000060363    0.000229694
      9        1           0.001969220   -0.001070826   -0.000410076
     10        1          -0.001831368   -0.000680429    0.004375028
     11        8           0.002361140    0.000756241   -0.005430067
     12        1           0.000653910   -0.000303564    0.000856688
 -------------------------------------------------------------------
 Cartesian Forces:  Max     0.005430067 RMS     0.001778134
 -----------------------------------------------------------------------------------------------
                       Internal Coordinate Forces (Hartree/Bohr or radian)
  Cent   Atom   N1       Length/X         N2         Alpha/Y        N3         Beta/Z          J
 -----------------------------------------------------------------------------------------------
      1  C            0.000574(     1)     -0.000831(    16)      0.000018(    31)
      2  C           -0.004602(     2)      0.004366(    17)      0.000042(    32)
      3  O            0.001177(     3)     -0.002455(    18)      0.001262(    33)
      4  H            0.000581(     4)      0.000061(    19)     -0.000040(    34)
      5  H           -0.000069(     5)      0.000103(    20)     -0.000142(    35)
      6  H           -0.000264(     6)     -0.000073(    21)     -0.000021(    36)
      7  H            0.001007(     7)     -0.000773(    22)     -0.000795(    37)
      8  H            0.000233(     8)      0.000060(    23)      0.000230(    38)
      9  H            0.001969(     9)     -0.001071(    24)     -0.000410(    39)
         X           -0.000339(    10)      0.000481(    25)     -0.000258(    40)
         X           -0.000267(    11)      0.000132(    26)      0.000115(    41)
     10  H        3   0.000909(    12)     11  -0.000720(    27)     10   0.001821(    42)     0
         X       12   0.000000(    13)      3   0.000763(    28)     11  -0.001205(    43)     0
     11  O       12   0.005450(    14)     13   0.000763(    29)     11  -0.000872(    44)     0
     12  H       14  -0.001072(    15)     12   0.000089(    30)     13  -0.000548(    45)     0
 -----------------------------------------------------------------------------------------------
 Internal  Forces:  Max     0.005449915 RMS     0.001475562

 GradGradGradGradGradGradGradGradGradGradGradGradGradGradGradGradGradGrad
 Berny optimization.
 Search for a local minimum.
 Step number   1 out of a maximum of  100
 All quantities printed in internal units (Hartrees-Bohrs-Radians)
 Second derivative matrix not updated -- first step.
 The second derivative matrix:
                          roh       phi
           roh          0.04359
           phi          0.00000   0.00000
     Eigenvalues ---    0.00000   0.04359
 RFO step:  Lambda=-5.57734540D-04 EMin= 1.49749993D-18
 Linear search not attempted -- first point.
 Maximum step size (   0.300) exceeded in Quadratic search.
    -- Step size scaled by   0.305
 Variable       Old X    -DE/DX   Delta X   Delta X   Delta X     New X
                                 (Linear)    (Quad)   (Total)
   roh        3.76566   0.00091   0.00000   0.00628   0.00628   3.77194
   phi       -2.44408  -0.00055   0.00000  -0.29993  -0.29993  -2.74402
         Item               Value     Threshold  Converged?
 Maximum Force            0.000909     0.000450     NO 
 RMS     Force            0.000750     0.000300     NO 
 Maximum Displacement     0.299934     0.001800     NO 
 RMS     Displacement     0.212132     0.001200     NO 
 Predicted change in Energy=-1.693003D-04
 GradGradGradGradGradGradGradGradGradGradGradGradGradGradGradGradGradGrad

 ---------------------------------------------------------------------------------------------------
                            Z-MATRIX (ANGSTROMS AND DEGREES)
   CD    Cent   Atom    N1       Length/X        N2       Alpha/Y        N3        Beta/Z          J
 ---------------------------------------------------------------------------------------------------
      1      1  C        0  -1.209050         -0.236510         -0.019180
      2      2  C        0   0.089910          0.552930          0.044910
      3      3  O        0   1.222000         -0.262490         -0.110010
      4      4  H        0  -2.067380          0.423870          0.062070
      5      5  H        0  -1.267690         -0.957740          0.792470
      6      6  H        0  -1.276370         -0.778020         -0.956280
      7      7  H        0   0.145550          1.112980          0.976650
      8      8  H        0   0.131480          1.270430         -0.764030
      9      9  H        0   1.273180         -0.870090          0.614760
     10         X        0   0.245700         -0.341150          1.026060
     11         X        0   2.041350          0.728250          0.662710
     12     10  H        3   1.996023(    11)     11   90.000(    24)     10  180.000(    36)      0
     13         X       12   1.500000(    12)      3   90.000(    25)     11    0.000(    37)      0
     14     11  O       12   0.947400(    13)     13   90.000(    26)     11  180.000(    38)      0
     15     12  H       14   0.947400(    14)     12  105.540(    27)     13 -157.221(    39)      0
 ---------------------------------------------------------------------------------------------------
                         Z-Matrix orientation:                         
 ---------------------------------------------------------------------
 Center     Atomic      Atomic             Coordinates (Angstroms)
 Number     Number       Type             X           Y           Z
 ---------------------------------------------------------------------
      1          6           0       -1.209050   -0.236510   -0.019180
      2          6           0        0.089910    0.552930    0.044910
      3          8           0        1.222000   -0.262490   -0.110010
      4          1           0       -2.067380    0.423870    0.062070
      5          1           0       -1.267690   -0.957740    0.792470
      6          1           0       -1.276370   -0.778020   -0.956280
      7          1           0        0.145550    1.112980    0.976650
      8          1           0        0.131480    1.270430   -0.764030
      9          1           0        1.273180   -0.870090    0.614760
     10         -1           0        0.245700   -0.341150    1.026060
     11         -1           0        2.041350    0.728250    0.662710
     12          1           0        2.521144   -0.157818   -1.621756
     13         -1           0        3.340495    0.832923   -0.849036
     14          8           0        3.137775   -0.108136   -2.339297
     15          1           0        2.656937   -0.385979   -3.106868
 ---------------------------------------------------------------------
                    Distance matrix (angstroms):
                    1          2          3          4          5
     1  C    0.000000
     2  C    1.521388   0.000000
     3  O    2.432885   1.403758   0.000000
     4  H    1.086017   2.161215   3.364628   0.000000
     5  H    1.087376   2.164266   2.737955   1.755515   0.000000
     6  H    1.084399   2.154189   2.687712   1.762746   1.757982
     7  H    2.155862   1.088527   2.057059   2.491664   2.513772
     8  H    2.150044   1.082090   1.991688   2.496816   3.056977
     9  H    2.639085   1.936451   0.947148   3.624795   2.548585
    10  X    1.794373   1.336527   1.500001   2.620090   1.650787
    11  X    3.458444   2.054393   1.499999   4.163541   3.716066
    12  H    4.060639   3.032134   1.996023   4.922214   4.563291
    13  X    4.746652   3.382874   2.496820   5.499323   5.209259
    14  O    4.928926   3.925676   2.943423   5.757016   5.471555
    15  H    4.949951   4.171916   3.324974   5.746059   5.561874
                    6          7          8          9         10
     6  H    0.000000
     7  H    3.055152   0.000000
     8  H    2.493020   1.747843   0.000000
     9  H    2.996139   2.309779   2.790406   0.000000
    10  X    2.537169   1.458412   2.411360   1.226646   0.000000
    11  X    3.987135   1.959753   2.444821   1.774000   2.121320
    12  H    3.904949   3.743006   2.913088   2.658336   3.496025
    13  X    4.891020   3.690424   3.239817   3.052334   3.804233
    14  O    4.673987   4.630339   3.663294   3.575436   4.443425
    15  H    4.499959   5.022854   3.822370   3.999958   4.785099
                   11         12         13         14         15
    11  X    0.000000
    12  H    2.496819   0.000000
    13  X    1.996023   1.500000   0.000000
    14  O    3.303594   0.947400   1.774138   0.000000
    15  H    3.978715   1.508660   2.655330   0.947400   0.000000
 Symmetry turned off by external request.
 Stoichiometry    C2H8O2
 Framework group  C1[X(C2H8O2)]
 Deg. of freedom    30
 Full point group                 C1      NOp   1
 Rotational constants (GHZ):     17.0383831      2.1461509      2.0742131
 Standard basis: 6-31G(d) (6D, 7F)
 Integral buffers will be    131072 words long.
 Raffenetti 1 integral format.
 Two-electron integral symmetry is turned off.
    76 basis functions,   144 primitive gaussians,    76 cartesian basis functions
    18 alpha electrons       18 beta electrons
       nuclear repulsion energy       128.5360487188 Hartrees.
 NAtoms=   12 NActive=   12 NUniq=   12 SFac= 7.50D-01 NAtFMM=   80 NAOKFM=F Big=F
 One-electron integrals computed using PRISM.
 NBasis=    76 RedAO= T  NBF=    76
 NBsUse=    76 1.00D-06 NBFU=    76
 Initial guess read from the read-write file.
 B after Tr=     0.000000    0.000000    0.000000
         Rot=    1.000000    0.000000    0.000000    0.000000 Ang=   0.00 deg.
 Harris functional with IExCor=  205 diagonalized for initial guess.
 ExpMin= 1.61D-01 ExpMax= 5.48D+03 ExpMxC= 8.25D+02 IAcc=1 IRadAn=         1 AccDes= 0.00D+00
 HarFok:  IExCor=  205 AccDes= 0.00D+00 IRadAn=         1 IDoV= 1
 ScaDFX=  1.000000  1.000000  1.000000  1.000000
 FoFCou: FMM=F IPFlag=           0 FMFlag=      100000 FMFlg1=           0
         NFxFlg=           0 DoJE=T BraDBF=F KetDBF=T FulRan=T
         Omega=  0.000000  0.000000  1.000000  0.000000  0.000000 ICntrl=     500 IOpCl=  0
         NMat0=    1 NMatS0=    1 NMatT0=    0 NMatD0=    1 NMtDS0=    0 NMtDT0=    0
         I1Cent=           4 NGrid=           0.
 Symmetry not used in FoFCou.
 Requested convergence on RMS density matrix=1.00D-08 within 128 cycles.
 Requested convergence on MAX density matrix=1.00D-06.
 Requested convergence on             energy=1.00D-06.
 No special actions if energy rises.
 Keep R1 ints in memory in canonical form, NReq=5139081.
 SCF Done:  E(RHF) =  -230.094269587     A.U. after   12 cycles
             Convg  =    0.6645D-08             -V/T =  2.0015
 Calling FoFJK, ICntrl=      2127 FMM=F ISym2X=0 I1Cent= 0 IOpClX= 0 NMat=1 NMatS=1 NMatT=0.
 -------------------------------------------------------------------
 Center     Atomic                   Forces (Hartrees/Bohr)
 Number     Number              X              Y              Z
 -------------------------------------------------------------------
      1        6           0.000619582   -0.000854191    0.000082630
      2        6          -0.004704750    0.004687094   -0.000175013
      3        8          -0.000400647   -0.002006349    0.001186529
      4        1           0.000592343    0.000048526   -0.000056801
      5        1          -0.000096770    0.000075123   -0.000116301
      6        1          -0.000284741   -0.000054008   -0.000049373
      7        1           0.001024206   -0.000831926   -0.000761909
      8        1           0.000298609   -0.000051384    0.000263924
      9        1           0.001928921   -0.000961321   -0.000312547
     10        1          -0.001885811   -0.000412475    0.004384292
     11        8           0.002354389    0.000310638   -0.005389736
     12        1           0.000554668    0.000050272    0.000944306
 -------------------------------------------------------------------
 Cartesian Forces:  Max     0.005389736 RMS     0.001805736
 -----------------------------------------------------------------------------------------------
                       Internal Coordinate Forces (Hartree/Bohr or radian)
  Cent   Atom   N1       Length/X         N2         Alpha/Y        N3         Beta/Z          J
 -----------------------------------------------------------------------------------------------
      1  C            0.000620(     1)     -0.000854(    16)      0.000083(    31)
      2  C           -0.004705(     2)      0.004687(    17)     -0.000175(    32)
      3  O            0.001135(     3)     -0.002487(    18)      0.001132(    33)
      4  H            0.000592(     4)      0.000049(    19)     -0.000057(    34)
      5  H           -0.000097(     5)      0.000075(    20)     -0.000116(    35)
      6  H           -0.000285(     6)     -0.000054(    21)     -0.000049(    36)
      7  H            0.001024(     7)     -0.000832(    22)     -0.000762(    37)
      8  H            0.000299(     8)     -0.000051(    23)      0.000264(    38)
      9  H            0.001929(     9)     -0.000961(    24)     -0.000313(    39)
         X           -0.000228(    10)      0.000324(    25)     -0.000174(    40)
         X           -0.000285(    11)      0.000105(    26)      0.000167(    41)
     10  H        3   0.000710(    12)     11  -0.000868(    27)     10   0.001226(    42)     0
         X       12   0.000000(    13)      3   0.000993(    28)     11  -0.001106(    43)     0
     11  O       12   0.005279(    14)     13   0.000993(    29)     11  -0.000862(    44)     0
     12  H       14  -0.001061(    15)     12  -0.000125(    30)     13  -0.000458(    45)     0
 -----------------------------------------------------------------------------------------------
 Internal  Forces:  Max     0.005279209 RMS     0.001475236

 GradGradGradGradGradGradGradGradGradGradGradGradGradGradGradGradGradGrad
 Berny optimization.
 Search for a local minimum.
 Step number   2 out of a maximum of  100
 All quantities printed in internal units (Hartrees-Bohrs-Radians)
 Update second derivatives using D2CorN and points    1    2
 DE= -1.60D-04 DEPred=-1.69D-04 R= 9.46D-01
 SS=  1.41D+00  RLast= 3.00D-01 DXNew= 5.0454D-01 9.0000D-01
 Trust test= 9.46D-01 RLast= 3.00D-01 DXMaxT set to 5.05D-01
 The second derivative matrix:
                          roh       phi
           roh          0.04359
           phi          0.00012   0.00030
     Eigenvalues ---    0.00030   0.04359
 RFO step:  Lambda=-4.91866020D-06 EMin= 2.99227447D-04
 Quartic linear search produced a step of  1.25503.
 Variable       Old X    -DE/DX   Delta X   Delta X   Delta X     New X
                                 (Linear)    (Quad)   (Total)
   roh        3.77194   0.00071   0.00788   0.01030   0.01818   3.79012
   phi       -2.74402  -0.00046  -0.37643   0.02700  -0.34943  -3.09345
         Item               Value     Threshold  Converged?
 Maximum Force            0.000710     0.000450     NO 
 RMS     Force            0.000597     0.000300     NO 
 Maximum Displacement     0.349428     0.001800     NO 
 RMS     Displacement     0.247417     0.001200     NO 
 Predicted change in Energy=-1.483598D-04
 GradGradGradGradGradGradGradGradGradGradGradGradGradGradGradGradGradGrad

 ---------------------------------------------------------------------------------------------------
                            Z-MATRIX (ANGSTROMS AND DEGREES)
   CD    Cent   Atom    N1       Length/X        N2       Alpha/Y        N3        Beta/Z          J
 ---------------------------------------------------------------------------------------------------
      1      1  C        0  -1.209050         -0.236510         -0.019180
      2      2  C        0   0.089910          0.552930          0.044910
      3      3  O        0   1.222000         -0.262490         -0.110010
      4      4  H        0  -2.067380          0.423870          0.062070
      5      5  H        0  -1.267690         -0.957740          0.792470
      6      6  H        0  -1.276370         -0.778020         -0.956280
      7      7  H        0   0.145550          1.112980          0.976650
      8      8  H        0   0.131480          1.270430         -0.764030
      9      9  H        0   1.273180         -0.870090          0.614760
     10         X        0   0.245700         -0.341150          1.026060
     11         X        0   2.041350          0.728250          0.662710
     12     10  H        3   2.005645(    11)     11   90.000(    24)     10  180.000(    36)      0
     13         X       12   1.500000(    12)      3   90.000(    25)     11    0.000(    37)      0
     14     11  O       12   0.947400(    13)     13   90.000(    26)     11  180.000(    38)      0
     15     12  H       14   0.947400(    14)     12  105.540(    27)     13 -177.241(    39)      0
 ---------------------------------------------------------------------------------------------------
                         Z-Matrix orientation:                         
 ---------------------------------------------------------------------
 Center     Atomic      Atomic             Coordinates (Angstroms)
 Number     Number       Type             X           Y           Z
 ---------------------------------------------------------------------
      1          6           0       -1.209050   -0.236510   -0.019180
      2          6           0        0.089910    0.552930    0.044910
      3          8           0        1.222000   -0.262490   -0.110010
      4          1           0       -2.067380    0.423870    0.062070
      5          1           0       -1.267690   -0.957740    0.792470
      6          1           0       -1.276370   -0.778020   -0.956280
      7          1           0        0.145550    1.112980    0.976650
      8          1           0        0.131480    1.270430   -0.764030
      9          1           0        1.273180   -0.870090    0.614760
     10         -1           0        0.245700   -0.341150    1.026060
     11         -1           0        2.041350    0.728250    0.662710
     12          1           0        2.527407   -0.157314   -1.629043
     13         -1           0        3.346757    0.833427   -0.856323
     14          8           0        3.144037   -0.107632   -2.346584
     15          1           0        2.788064   -0.663597   -3.026108
 ---------------------------------------------------------------------
                    Distance matrix (angstroms):
                    1          2          3          4          5
     1  C    0.000000
     2  C    1.521388   0.000000
     3  O    2.432885   1.403758   0.000000
     4  H    1.086017   2.161215   3.364628   0.000000
     5  H    1.087376   2.164266   2.737955   1.755515   0.000000
     6  H    1.084399   2.154189   2.687712   1.762746   1.757982
     7  H    2.155862   1.088527   2.057059   2.491664   2.513772
     8  H    2.150044   1.082090   1.991688   2.496816   3.056977
     9  H    2.639085   1.936451   0.947148   3.624795   2.548585
    10  X    1.794373   1.336527   1.500001   2.620090   1.650787
    11  X    3.458444   2.054393   1.499999   4.163541   3.716066
    12  H    4.069280   3.041045   2.005645   4.930487   4.572436
    13  X    4.754046   3.390863   2.504518   5.506729   5.217271
    14  O    4.937893   3.934880   2.953045   5.765673   5.480847
    15  H    5.020054   4.265105   3.334227   5.856173   5.578279
                    6          7          8          9         10
     6  H    0.000000
     7  H    3.055152   0.000000
     8  H    2.493020   1.747843   0.000000
     9  H    2.996139   2.309779   2.790406   0.000000
    10  X    2.537169   1.458412   2.411360   1.226646   0.000000
    11  X    3.987135   1.959753   2.444821   1.774000   2.121320
    12  H    3.912365   3.751869   2.920131   2.667543   3.505646
    13  X    4.896944   3.699414   3.246151   3.060356   3.813077
    14  O    4.682133   4.639472   3.671380   3.584831   4.453046
    15  H    4.562555   5.114800   3.989348   3.948852   4.794544
                   11         12         13         14         15
    11  X    0.000000
    12  H    2.504517   0.000000
    13  X    2.005645   1.500000   0.000000
    14  O    3.312170   0.947400   1.774138   0.000000
    15  H    4.012754   1.508660   2.694659   0.947400   0.000000
 Symmetry turned off by external request.
 Stoichiometry    C2H8O2
 Framework group  C1[X(C2H8O2)]
 Deg. of freedom    30
 Full point group                 C1      NOp   1
 Rotational constants (GHZ):     17.0738466      2.1331728      2.0650196
 Standard basis: 6-31G(d) (6D, 7F)
 Integral buffers will be    131072 words long.
 Raffenetti 1 integral format.
 Two-electron integral symmetry is turned off.
    76 basis functions,   144 primitive gaussians,    76 cartesian basis functions
    18 alpha electrons       18 beta electrons
       nuclear repulsion energy       128.4068750378 Hartrees.
 NAtoms=   12 NActive=   12 NUniq=   12 SFac= 7.50D-01 NAtFMM=   80 NAOKFM=F Big=F
 One-electron integrals computed using PRISM.
 NBasis=    76 RedAO= T  NBF=    76
 NBsUse=    76 1.00D-06 NBFU=    76
 Initial guess read from the read-write file.
 B after Tr=     0.000000    0.000000    0.000000
         Rot=    1.000000    0.000000    0.000000    0.000000 Ang=   0.00 deg.
 Harris functional with IExCor=  205 diagonalized for initial guess.
 ExpMin= 1.61D-01 ExpMax= 5.48D+03 ExpMxC= 8.25D+02 IAcc=1 IRadAn=         1 AccDes= 0.00D+00
 HarFok:  IExCor=  205 AccDes= 0.00D+00 IRadAn=         1 IDoV= 1
 ScaDFX=  1.000000  1.000000  1.000000  1.000000
 FoFCou: FMM=F IPFlag=           0 FMFlag=      100000 FMFlg1=           0
         NFxFlg=           0 DoJE=T BraDBF=F KetDBF=T FulRan=T
         Omega=  0.000000  0.000000  1.000000  0.000000  0.000000 ICntrl=     500 IOpCl=  0
         NMat0=    1 NMatS0=    1 NMatT0=    0 NMatD0=    1 NMtDS0=    0 NMtDT0=    0
         I1Cent=           4 NGrid=           0.
 Symmetry not used in FoFCou.
 Requested convergence on RMS density matrix=1.00D-08 within 128 cycles.
 Requested convergence on MAX density matrix=1.00D-06.
 Requested convergence on             energy=1.00D-06.
 No special actions if energy rises.
 Keep R1 ints in memory in canonical form, NReq=5139081.
 SCF Done:  E(RHF) =  -230.094396561     A.U. after   12 cycles
             Convg  =    0.8028D-08             -V/T =  2.0015
 Calling FoFJK, ICntrl=      2127 FMM=F ISym2X=0 I1Cent= 0 IOpClX= 0 NMat=1 NMatS=1 NMatT=0.
 -------------------------------------------------------------------
 Center     Atomic                   Forces (Hartrees/Bohr)
 Number     Number              X              Y              Z
 -------------------------------------------------------------------
      1        6           0.000661845   -0.000886366    0.000101161
      2        6          -0.004834058    0.004958600   -0.000430618
      3        8           0.000015211   -0.002425308    0.001040299
      4        1           0.000602914    0.000040407   -0.000064710
      5        1          -0.000120694    0.000050013   -0.000069512
      6        1          -0.000283053   -0.000010487   -0.000070443
      7        1           0.001048178   -0.000887723   -0.000708419
      8        1           0.000332890   -0.000181805    0.000288480
      9        1           0.001821154   -0.000803056   -0.000177332
     10        1          -0.002045697   -0.000134598    0.004343320
     11        8           0.002490708   -0.000212164   -0.005154982
     12        1           0.000310603    0.000492486    0.000902755
 -------------------------------------------------------------------
 Cartesian Forces:  Max     0.005154982 RMS     0.001829304
 -----------------------------------------------------------------------------------------------
                       Internal Coordinate Forces (Hartree/Bohr or radian)
  Cent   Atom   N1       Length/X         N2         Alpha/Y        N3         Beta/Z          J
 -----------------------------------------------------------------------------------------------
      1  C            0.000662(     1)     -0.000886(    16)      0.000101(    31)
      2  C           -0.004834(     2)      0.004959(    17)     -0.000431(    32)
      3  O            0.001111(     3)     -0.002441(    18)      0.000978(    33)
      4  H            0.000603(     4)      0.000040(    19)     -0.000065(    34)
      5  H           -0.000121(     5)      0.000050(    20)     -0.000070(    35)
      6  H           -0.000283(     6)     -0.000010(    21)     -0.000070(    36)
      7  H            0.001048(     7)     -0.000888(    22)     -0.000708(    37)
      8  H            0.000333(     8)     -0.000182(    23)      0.000288(    38)
      9  H            0.001821(     9)     -0.000803(    24)     -0.000177(    39)
         X           -0.000090(    10)      0.000128(    25)     -0.000069(    40)
         X           -0.000249(    11)      0.000033(    26)      0.000222(    41)
     10  H        3   0.000430(    12)     11  -0.000931(    27)     10   0.000486(    42)     0
         X       12   0.000000(    13)      3   0.001176(    28)     11  -0.000751(    43)     0
     11  O       12   0.005059(    14)     13   0.001176(    29)     11  -0.000749(    44)     0
     12  H       14  -0.001053(    15)     12  -0.000323(    30)     13  -0.000191(    45)     0
 -----------------------------------------------------------------------------------------------
 Internal  Forces:  Max     0.005058527 RMS     0.001466430

 GradGradGradGradGradGradGradGradGradGradGradGradGradGradGradGradGradGrad
 Berny optimization.
 Search for a local minimum.
 Step number   3 out of a maximum of  100
 All quantities printed in internal units (Hartrees-Bohrs-Radians)
 Update second derivatives using D2CorN and points    2    3
 DE= -1.27D-04 DEPred=-1.48D-04 R= 8.56D-01
 SS=  1.41D+00  RLast= 3.50D-01 DXNew= 8.4853D-01 1.0497D+00
 Trust test= 8.56D-01 RLast= 3.50D-01 DXMaxT set to 8.49D-01
 The second derivative matrix:
                          roh       phi
           roh          0.04352
           phi          0.00078   0.00077
     Eigenvalues ---    0.00076   0.04353
 RFO step:  Lambda=-1.75986194D-06 EMin= 7.56000204D-04
 Quartic linear search produced a step of  0.57258.
 Variable       Old X    -DE/DX   Delta X   Delta X   Delta X     New X
                                 (Linear)    (Quad)   (Total)
   roh        3.79012   0.00043   0.01041   0.00594   0.01635   3.80647
   phi       -3.09345  -0.00019  -0.20008   0.01205  -0.18803  -3.28147
         Item               Value     Threshold  Converged?
 Maximum Force            0.000430     0.000450     YES
 RMS     Force            0.000333     0.000300     NO 
 Maximum Displacement     0.188029     0.001800     NO 
 RMS     Displacement     0.133458     0.001200     NO 
 Predicted change in Energy=-2.592251D-05
 GradGradGradGradGradGradGradGradGradGradGradGradGradGradGradGradGradGrad

 ---------------------------------------------------------------------------------------------------
                            Z-MATRIX (ANGSTROMS AND DEGREES)
   CD    Cent   Atom    N1       Length/X        N2       Alpha/Y        N3        Beta/Z          J
 ---------------------------------------------------------------------------------------------------
      1      1  C        0  -1.209050         -0.236510         -0.019180
      2      2  C        0   0.089910          0.552930          0.044910
      3      3  O        0   1.222000         -0.262490         -0.110010
      4      4  H        0  -2.067380          0.423870          0.062070
      5      5  H        0  -1.267690         -0.957740          0.792470
      6      6  H        0  -1.276370         -0.778020         -0.956280
      7      7  H        0   0.145550          1.112980          0.976650
      8      8  H        0   0.131480          1.270430         -0.764030
      9      9  H        0   1.273180         -0.870090          0.614760
     10         X        0   0.245700         -0.341150          1.026060
     11         X        0   2.041350          0.728250          0.662710
     12     10  H        3   2.014297(    11)     11   90.000(    24)     10  180.000(    36)      0
     13         X       12   1.500000(    12)      3   90.000(    25)     11    0.000(    37)      0
     14     11  O       12   0.947400(    13)     13   90.000(    26)     11  180.000(    38)      0
     15     12  H       14   0.947400(    14)     12  105.540(    27)     13 -188.015(    39)      0
 ---------------------------------------------------------------------------------------------------
                         Z-Matrix orientation:                         
 ---------------------------------------------------------------------
 Center     Atomic      Atomic             Coordinates (Angstroms)
 Number     Number       Type             X           Y           Z
 ---------------------------------------------------------------------
      1          6           0       -1.209050   -0.236510   -0.019180
      2          6           0        0.089910    0.552930    0.044910
      3          8           0        1.222000   -0.262490   -0.110010
      4          1           0       -2.067380    0.423870    0.062070
      5          1           0       -1.267690   -0.957740    0.792470
      6          1           0       -1.276370   -0.778020   -0.956280
      7          1           0        0.145550    1.112980    0.976650
      8          1           0        0.131480    1.270430   -0.764030
      9          1           0        1.273180   -0.870090    0.614760
     10         -1           0        0.245700   -0.341150    1.026060
     11         -1           0        2.041350    0.728250    0.662710
     12          1           0        2.533038   -0.156860   -1.635597
     13         -1           0        3.352389    0.833881   -0.862876
     14          8           0        3.149669   -0.107178   -2.353138
     15          1           0        2.888252   -0.786178   -2.959922
 ---------------------------------------------------------------------
                    Distance matrix (angstroms):
                    1          2          3          4          5
     1  C    0.000000
     2  C    1.521388   0.000000
     3  O    2.432885   1.403758   0.000000
     4  H    1.086017   2.161215   3.364628   0.000000
     5  H    1.087376   2.164266   2.737955   1.755515   0.000000
     6  H    1.084399   2.154189   2.687712   1.762746   1.757982
     7  H    2.155862   1.088527   2.057059   2.491664   2.513772
     8  H    2.150044   1.082090   1.991688   2.496816   3.056977
     9  H    2.639085   1.936451   0.947148   3.624795   2.548585
    10  X    1.794373   1.336527   1.500001   2.620090   1.650787
    11  X    3.458444   2.054393   1.499999   4.163541   3.716066
    12  H    4.077054   3.049062   2.014297   4.937932   4.580661
    13  X    4.760702   3.398055   2.511453   5.513396   5.224481
    14  O    4.945960   3.943159   2.961697   5.773460   5.489204
    15  H    5.073261   4.318905   3.342550   5.929160   5.601940
                    6          7          8          9         10
     6  H    0.000000
     7  H    3.055152   0.000000
     8  H    2.493020   1.747843   0.000000
     9  H    2.996139   2.309779   2.790406   0.000000
    10  X    2.537169   1.458412   2.411360   1.226646   0.000000
    11  X    3.987135   1.959753   2.444821   1.774000   2.121320
    12  H    3.919044   3.759844   2.926477   2.675826   3.514299
    13  X    4.902281   3.707502   3.251861   3.067578   3.821033
    14  O    4.689463   4.647688   3.678659   3.593280   4.461699
    15  H    4.621550   5.160020   4.080609   3.923499   4.803039
                   11         12         13         14         15
    11  X    0.000000
    12  H    2.511452   0.000000
    13  X    2.014297   1.500000   0.000000
    14  O    3.319887   0.947400   1.774138   0.000000
    15  H    4.016739   1.508660   2.690281   0.947400   0.000000
 Symmetry turned off by external request.
 Stoichiometry    C2H8O2
 Framework group  C1[X(C2H8O2)]
 Deg. of freedom    30
 Full point group                 C1      NOp   1
 Rotational constants (GHZ):     17.1027556      2.1224487      2.0573459
 Standard basis: 6-31G(d) (6D, 7F)
 Integral buffers will be    131072 words long.
 Raffenetti 1 integral format.
 Two-electron integral symmetry is turned off.
    76 basis functions,   144 primitive gaussians,    76 cartesian basis functions
    18 alpha electrons       18 beta electrons
       nuclear repulsion energy       128.3009002036 Hartrees.
 NAtoms=   12 NActive=   12 NUniq=   12 SFac= 7.50D-01 NAtFMM=   80 NAOKFM=F Big=F
 One-electron integrals computed using PRISM.
 NBasis=    76 RedAO= T  NBF=    76
 NBsUse=    76 1.00D-06 NBFU=    76
 Initial guess read from the read-write file.
 B after Tr=     0.000000    0.000000    0.000000
         Rot=    1.000000    0.000000    0.000000    0.000000 Ang=   0.00 deg.
 Harris functional with IExCor=  205 diagonalized for initial guess.
 ExpMin= 1.61D-01 ExpMax= 5.48D+03 ExpMxC= 8.25D+02 IAcc=1 IRadAn=         1 AccDes= 0.00D+00
 HarFok:  IExCor=  205 AccDes= 0.00D+00 IRadAn=         1 IDoV= 1
 ScaDFX=  1.000000  1.000000  1.000000  1.000000
 FoFCou: FMM=F IPFlag=           0 FMFlag=      100000 FMFlg1=           0
         NFxFlg=           0 DoJE=T BraDBF=F KetDBF=T FulRan=T
         Omega=  0.000000  0.000000  1.000000  0.000000  0.000000 ICntrl=     500 IOpCl=  0
         NMat0=    1 NMatS0=    1 NMatT0=    0 NMatD0=    1 NMtDS0=    0 NMtDT0=    0
         I1Cent=           4 NGrid=           0.
 Symmetry not used in FoFCou.
 Requested convergence on RMS density matrix=1.00D-08 within 128 cycles.
 Requested convergence on MAX density matrix=1.00D-06.
 Requested convergence on             energy=1.00D-06.
 No special actions if energy rises.
 Keep R1 ints in memory in canonical form, NReq=5139081.
 SCF Done:  E(RHF) =  -230.094422156     A.U. after   12 cycles
             Convg  =    0.3796D-08             -V/T =  2.0015
 Calling FoFJK, ICntrl=      2127 FMM=F ISym2X=0 I1Cent= 0 IOpClX= 0 NMat=1 NMatS=1 NMatT=0.
 -------------------------------------------------------------------
 Center     Atomic                   Forces (Hartrees/Bohr)
 Number     Number              X              Y              Z
 -------------------------------------------------------------------
      1        6           0.000677171   -0.000903524    0.000086791
      2        6          -0.004892171    0.005042981   -0.000550907
      3        8           0.000310034   -0.002609115    0.000958617
      4        1           0.000606493    0.000039558   -0.000063453
      5        1          -0.000128934    0.000040522   -0.000041316
      6        1          -0.000271638    0.000016883   -0.000074690
      7        1           0.001059638   -0.000906903   -0.000677391
      8        1           0.000333074   -0.000240833    0.000297203
      9        1           0.001729512   -0.000714996   -0.000105213
     10        1          -0.002172287   -0.000012905    0.004301131
     11        8           0.002614806   -0.000441594   -0.004942504
     12        1           0.000134303    0.000689925    0.000811732
 -------------------------------------------------------------------
 Cartesian Forces:  Max     0.005042981 RMS     0.001835254
 -----------------------------------------------------------------------------------------------
                       Internal Coordinate Forces (Hartree/Bohr or radian)
  Cent   Atom   N1       Length/X         N2         Alpha/Y        N3         Beta/Z          J
 -----------------------------------------------------------------------------------------------
      1  C            0.000677(     1)     -0.000904(    16)      0.000087(    31)
      2  C           -0.004892(     2)      0.005043(    17)     -0.000551(    32)
      3  O            0.001120(     3)     -0.002390(    18)      0.000903(    33)
      4  H            0.000606(     4)      0.000040(    19)     -0.000063(    34)
      5  H           -0.000129(     5)      0.000041(    20)     -0.000041(    35)
      6  H           -0.000272(     6)      0.000017(    21)     -0.000075(    36)
      7  H            0.001060(     7)     -0.000907(    22)     -0.000677(    37)
      8  H            0.000333(     8)     -0.000241(    23)      0.000297(    38)
      9  H            0.001730(     9)     -0.000715(    24)     -0.000105(    39)
         X           -0.000019(    10)      0.000027(    25)     -0.000014(    40)
         X           -0.000214(    11)     -0.000011(    26)      0.000241(    41)
     10  H        3   0.000259(    12)     11  -0.000913(    27)     10   0.000102(    42)     0
         X       12   0.000000(    13)      3   0.001212(    28)     11  -0.000503(    43)     0
     11  O       12   0.004931(    14)     13   0.001212(    29)     11  -0.000645(    44)     0
     12  H       14  -0.001051(    15)     12  -0.000389(    30)     13  -0.000022(    45)     0
 -----------------------------------------------------------------------------------------------
 Internal  Forces:  Max     0.005042981 RMS     0.001457338

 GradGradGradGradGradGradGradGradGradGradGradGradGradGradGradGradGradGrad
 Berny optimization.
 Search for a local minimum.
 Step number   4 out of a maximum of  100
 All quantities printed in internal units (Hartrees-Bohrs-Radians)
 Update second derivatives using D2CorN and points    2    3    4
 DE= -2.56D-05 DEPred=-2.59D-05 R= 9.87D-01
 SS=  1.41D+00  RLast= 1.89D-01 DXNew= 1.4270D+00 5.6622D-01
 Trust test= 9.87D-01 RLast= 1.89D-01 DXMaxT set to 8.49D-01
 The second derivative matrix:
                          roh       phi
           roh          0.04331
           phi          0.00210   0.00101
     Eigenvalues ---    0.00091   0.04341
 RFO step:  Lambda=-1.15067817D-06 EMin= 9.09807451D-04
 Quartic linear search produced a step of  0.25071.
 Variable       Old X    -DE/DX   Delta X   Delta X   Delta X     New X
                                 (Linear)    (Quad)   (Total)
   roh        3.80647   0.00026   0.00410   0.00454   0.00864   3.81511
   phi       -3.28147  -0.00002  -0.04714   0.00908  -0.03806  -3.31953
         Item               Value     Threshold  Converged?
 Maximum Force            0.000259     0.000450     YES
 RMS     Force            0.000184     0.000300     YES
 Maximum Displacement     0.038057     0.001800     NO 
 RMS     Displacement     0.027596     0.001200     NO 
 Predicted change in Energy=-1.429667D-06
 GradGradGradGradGradGradGradGradGradGradGradGradGradGradGradGradGradGrad

 ---------------------------------------------------------------------------------------------------
                            Z-MATRIX (ANGSTROMS AND DEGREES)
   CD    Cent   Atom    N1       Length/X        N2       Alpha/Y        N3        Beta/Z          J
 ---------------------------------------------------------------------------------------------------
      1      1  C        0  -1.209050         -0.236510         -0.019180
      2      2  C        0   0.089910          0.552930          0.044910
      3      3  O        0   1.222000         -0.262490         -0.110010
      4      4  H        0  -2.067380          0.423870          0.062070
      5      5  H        0  -1.267690         -0.957740          0.792470
      6      6  H        0  -1.276370         -0.778020         -0.956280
      7      7  H        0   0.145550          1.112980          0.976650
      8      8  H        0   0.131480          1.270430         -0.764030
      9      9  H        0   1.273180         -0.870090          0.614760
     10         X        0   0.245700         -0.341150          1.026060
     11         X        0   2.041350          0.728250          0.662710
     12     10  H        3   2.018870(    11)     11   90.000(    24)     10  180.000(    36)      0
     13         X       12   1.500000(    12)      3   90.000(    25)     11    0.000(    37)      0
     14     11  O       12   0.947400(    13)     13   90.000(    26)     11  180.000(    38)      0
     15     12  H       14   0.947400(    14)     12  105.540(    27)     13 -190.195(    39)      0
 ---------------------------------------------------------------------------------------------------
                         Z-Matrix orientation:                         
 ---------------------------------------------------------------------
 Center     Atomic      Atomic             Coordinates (Angstroms)
 Number     Number       Type             X           Y           Z
 ---------------------------------------------------------------------
      1          6           0       -1.209050   -0.236510   -0.019180
      2          6           0        0.089910    0.552930    0.044910
      3          8           0        1.222000   -0.262490   -0.110010
      4          1           0       -2.067380    0.423870    0.062070
      5          1           0       -1.267690   -0.957740    0.792470
      6          1           0       -1.276370   -0.778020   -0.956280
      7          1           0        0.145550    1.112980    0.976650
      8          1           0        0.131480    1.270430   -0.764030
      9          1           0        1.273180   -0.870090    0.614760
     10         -1           0        0.245700   -0.341150    1.026060
     11         -1           0        2.041350    0.728250    0.662710
     12          1           0        2.536015   -0.156620   -1.639060
     13         -1           0        3.355365    0.834121   -0.866339
     14          8           0        3.152645   -0.106938   -2.356601
     15          1           0        2.912314   -0.807996   -2.946792
 ---------------------------------------------------------------------
                    Distance matrix (angstroms):
                    1          2          3          4          5
     1  C    0.000000
     2  C    1.521388   0.000000
     3  O    2.432885   1.403758   0.000000
     4  H    1.086017   2.161215   3.364628   0.000000
     5  H    1.087376   2.164266   2.737955   1.755515   0.000000
     6  H    1.084399   2.154189   2.687712   1.762746   1.757982
     7  H    2.155862   1.088527   2.057059   2.491664   2.513772
     8  H    2.150044   1.082090   1.991688   2.496816   3.056977
     9  H    2.639085   1.936451   0.947148   3.624795   2.548585
    10  X    1.794373   1.336527   1.500001   2.620090   1.650787
    11  X    3.458444   2.054393   1.499999   4.163541   3.716066
    12  H    4.081164   3.053300   2.018870   4.941867   4.585008
    13  X    4.764222   3.401859   2.515122   5.516921   5.228294
    14  O    4.950223   3.947534   2.966270   5.777576   5.493621
    15  H    5.087548   4.332247   3.346949   5.947108   5.610431
                    6          7          8          9         10
     6  H    0.000000
     7  H    3.055152   0.000000
     8  H    2.493020   1.747843   0.000000
     9  H    2.996139   2.309779   2.790406   0.000000
    10  X    2.537169   1.458412   2.411360   1.226646   0.000000
    11  X    3.987135   1.959753   2.444821   1.774000   2.121320
    12  H    3.922576   3.764059   2.929835   2.680204   3.518871
    13  X    4.905105   3.711777   3.254884   3.071398   3.825239
    14  O    4.693338   4.652030   3.682508   3.597746   4.466271
    15  H    4.637684   5.170931   4.100895   3.921131   4.807528
                   11         12         13         14         15
    11  X    0.000000
    12  H    2.515121   0.000000
    13  X    2.018870   1.500000   0.000000
    14  O    3.323967   0.947400   1.774138   0.000000
    15  H    4.018350   1.508660   2.687215   0.947400   0.000000
 Symmetry turned off by external request.
 Stoichiometry    C2H8O2
 Framework group  C1[X(C2H8O2)]
 Deg. of freedom    30
 Full point group                 C1      NOp   1
 Rotational constants (GHZ):     17.1046710      2.1178863      2.0535209
 Standard basis: 6-31G(d) (6D, 7F)
 Integral buffers will be    131072 words long.
 Raffenetti 1 integral format.
 Two-electron integral symmetry is turned off.
    76 basis functions,   144 primitive gaussians,    76 cartesian basis functions
    18 alpha electrons       18 beta electrons
       nuclear repulsion energy       128.2510374578 Hartrees.
 NAtoms=   12 NActive=   12 NUniq=   12 SFac= 7.50D-01 NAtFMM=   80 NAOKFM=F Big=F
 One-electron integrals computed using PRISM.
 NBasis=    76 RedAO= T  NBF=    76
 NBsUse=    76 1.00D-06 NBFU=    76
 Initial guess read from the read-write file.
 B after Tr=     0.000000    0.000000    0.000000
         Rot=    1.000000    0.000000    0.000000    0.000000 Ang=   0.00 deg.
 Harris functional with IExCor=  205 diagonalized for initial guess.
 ExpMin= 1.61D-01 ExpMax= 5.48D+03 ExpMxC= 8.25D+02 IAcc=1 IRadAn=         1 AccDes= 0.00D+00
 HarFok:  IExCor=  205 AccDes= 0.00D+00 IRadAn=         1 IDoV= 1
 ScaDFX=  1.000000  1.000000  1.000000  1.000000
 FoFCou: FMM=F IPFlag=           0 FMFlag=      100000 FMFlg1=           0
         NFxFlg=           0 DoJE=T BraDBF=F KetDBF=T FulRan=T
         Omega=  0.000000  0.000000  1.000000  0.000000  0.000000 ICntrl=     500 IOpCl=  0
         NMat0=    1 NMatS0=    1 NMatT0=    0 NMatD0=    1 NMtDS0=    0 NMtDT0=    0
         I1Cent=           4 NGrid=           0.
 Symmetry not used in FoFCou.
 Requested convergence on RMS density matrix=1.00D-08 within 128 cycles.
 Requested convergence on MAX density matrix=1.00D-06.
 Requested convergence on             energy=1.00D-06.
 No special actions if energy rises.
 Keep R1 ints in memory in canonical form, NReq=5139081.
 SCF Done:  E(RHF) =  -230.094424262     A.U. after    9 cycles
             Convg  =    0.5620D-08             -V/T =  2.0015
 Calling FoFJK, ICntrl=      2127 FMM=F ISym2X=0 I1Cent= 0 IOpClX= 0 NMat=1 NMatS=1 NMatT=0.
 -------------------------------------------------------------------
 Center     Atomic                   Forces (Hartrees/Bohr)
 Number     Number              X              Y              Z
 -------------------------------------------------------------------
      1        6           0.000677885   -0.000904389    0.000082362
      2        6          -0.004889697    0.005042113   -0.000571467
      3        8           0.000405128   -0.002634835    0.000903669
      4        1           0.000605722    0.000039433   -0.000062723
      5        1          -0.000129912    0.000038867   -0.000035581
      6        1          -0.000268142    0.000022247   -0.000074886
      7        1           0.001058975   -0.000907540   -0.000669689
      8        1           0.000329987   -0.000250128    0.000298668
      9        1           0.001703051   -0.000694851   -0.000091407
     10        1          -0.002211461    0.000007417    0.004297597
     11        8           0.002624912   -0.000479518   -0.004866284
     12        1           0.000093552    0.000721184    0.000789743
 -------------------------------------------------------------------
 Cartesian Forces:  Max     0.005042113 RMS     0.001831022
 -----------------------------------------------------------------------------------------------
                       Internal Coordinate Forces (Hartree/Bohr or radian)
  Cent   Atom   N1       Length/X         N2         Alpha/Y        N3         Beta/Z          J
 -----------------------------------------------------------------------------------------------
      1  C            0.000678(     1)     -0.000904(    16)      0.000082(    31)
      2  C           -0.004890(     2)      0.005042(    17)     -0.000571(    32)
      3  O            0.001123(     3)     -0.002374(    18)      0.000886(    33)
      4  H            0.000606(     4)      0.000039(    19)     -0.000063(    34)
      5  H           -0.000130(     5)      0.000039(    20)     -0.000036(    35)
      6  H           -0.000268(     6)      0.000022(    21)     -0.000075(    36)
      7  H            0.001059(     7)     -0.000908(    22)     -0.000670(    37)
      8  H            0.000330(     8)     -0.000250(    23)      0.000299(    38)
      9  H            0.001703(     9)     -0.000695(    24)     -0.000091(    39)
         X           -0.000005(    10)      0.000008(    25)     -0.000004(    40)
         X           -0.000206(    11)     -0.000019(    26)      0.000243(    41)
     10  H        3   0.000176(    12)     11  -0.000903(    27)     10   0.000029(    42)     0
         X       12   0.000000(    13)      3   0.001215(    28)     11  -0.000449(    43)     0
     11  O       12   0.004870(    14)     13   0.001215(    29)     11  -0.000617(    44)     0
     12  H       14  -0.001049(    15)     12  -0.000406(    30)     13   0.000010(    45)     0
 -----------------------------------------------------------------------------------------------
 Internal  Forces:  Max     0.005042113 RMS     0.001449941

 GradGradGradGradGradGradGradGradGradGradGradGradGradGradGradGradGradGrad
 Berny optimization.
 Search for a local minimum.
 Step number   5 out of a maximum of  100
 All quantities printed in internal units (Hartrees-Bohrs-Radians)
 Update second derivatives using D2CorN and points    3    4    5
 DE= -2.11D-06 DEPred=-1.43D-06 R= 1.47D+00
 SS=  1.41D+00  RLast= 3.90D-02 DXNew= 1.4270D+00 1.1708D-01
 Trust test= 1.47D+00 RLast= 3.90D-02 DXMaxT set to 8.49D-01
 The second derivative matrix:
                          roh       phi
           roh          0.04212
           phi          0.00508   0.00149
     Eigenvalues ---    0.00086   0.04274
 RFO step:  Lambda=-5.85445930D-07 EMin= 8.60450543D-04
 Quartic linear search produced a step of  0.59583.
 Variable       Old X    -DE/DX   Delta X   Delta X   Delta X     New X
                                 (Linear)    (Quad)   (Total)
   roh        3.81511   0.00018   0.00515   0.00114   0.00629   3.82140
   phi       -3.31953   0.00001  -0.02268   0.01538  -0.00730  -3.32683
         Item               Value     Threshold  Converged?
 Maximum Force            0.000176     0.000450     YES
 RMS     Force            0.000124     0.000300     YES
 Maximum Displacement     0.007296     0.001800     NO 
 RMS     Displacement     0.006813     0.001200     NO 
 Predicted change in Energy=-3.915892D-07
 GradGradGradGradGradGradGradGradGradGradGradGradGradGradGradGradGradGrad

 ---------------------------------------------------------------------------------------------------
                            Z-MATRIX (ANGSTROMS AND DEGREES)
   CD    Cent   Atom    N1       Length/X        N2       Alpha/Y        N3        Beta/Z          J
 ---------------------------------------------------------------------------------------------------
      1      1  C        0  -1.209050         -0.236510         -0.019180
      2      2  C        0   0.089910          0.552930          0.044910
      3      3  O        0   1.222000         -0.262490         -0.110010
      4      4  H        0  -2.067380          0.423870          0.062070
      5      5  H        0  -1.267690         -0.957740          0.792470
      6      6  H        0  -1.276370         -0.778020         -0.956280
      7      7  H        0   0.145550          1.112980          0.976650
      8      8  H        0   0.131480          1.270430         -0.764030
      9      9  H        0   1.273180         -0.870090          0.614760
     10         X        0   0.245700         -0.341150          1.026060
     11         X        0   2.041350          0.728250          0.662710
     12     10  H        3   2.022200(    11)     11   90.000(    24)     10  180.000(    36)      0
     13         X       12   1.500000(    12)      3   90.000(    25)     11    0.000(    37)      0
     14     11  O       12   0.947400(    13)     13   90.000(    26)     11  180.000(    38)      0
     15     12  H       14   0.947400(    14)     12  105.540(    27)     13 -190.613(    39)      0
 ---------------------------------------------------------------------------------------------------
                         Z-Matrix orientation:                         
 ---------------------------------------------------------------------
 Center     Atomic      Atomic             Coordinates (Angstroms)
 Number     Number       Type             X           Y           Z
 ---------------------------------------------------------------------
      1          6           0       -1.209050   -0.236510   -0.019180
      2          6           0        0.089910    0.552930    0.044910
      3          8           0        1.222000   -0.262490   -0.110010
      4          1           0       -2.067380    0.423870    0.062070
      5          1           0       -1.267690   -0.957740    0.792470
      6          1           0       -1.276370   -0.778020   -0.956280
      7          1           0        0.145550    1.112980    0.976650
      8          1           0        0.131480    1.270430   -0.764030
      9          1           0        1.273180   -0.870090    0.614760
     10         -1           0        0.245700   -0.341150    1.026060
     11         -1           0        2.041350    0.728250    0.662710
     12          1           0        2.538182   -0.156445   -1.641582
     13         -1           0        3.357532    0.834295   -0.868861
     14          8           0        3.154812   -0.106763   -2.359123
     15          1           0        2.918592   -0.811934   -2.946065
 ---------------------------------------------------------------------
                    Distance matrix (angstroms):
                    1          2          3          4          5
     1  C    0.000000
     2  C    1.521388   0.000000
     3  O    2.432885   1.403758   0.000000
     4  H    1.086017   2.161215   3.364628   0.000000
     5  H    1.087376   2.164266   2.737955   1.755515   0.000000
     6  H    1.084399   2.154189   2.687712   1.762746   1.757982
     7  H    2.155862   1.088527   2.057059   2.491664   2.513772
     8  H    2.150044   1.082090   1.991688   2.496816   3.056977
     9  H    2.639085   1.936451   0.947148   3.624795   2.548585
    10  X    1.794373   1.336527   1.500001   2.620090   1.650787
    11  X    3.458444   2.054393   1.499999   4.163541   3.716066
    12  H    4.084157   3.056387   2.022200   4.944734   4.588174
    13  X    4.766787   3.404629   2.517795   5.519489   5.231070
    14  O    4.953328   3.950721   2.969600   5.780574   5.496838
    15  H    5.092661   4.337076   3.350153   5.952815   5.614522
                    6          7          8          9         10
     6  H    0.000000
     7  H    3.055152   0.000000
     8  H    2.493020   1.747843   0.000000
     9  H    2.996139   2.309779   2.790406   0.000000
    10  X    2.537169   1.458412   2.411360   1.226646   0.000000
    11  X    3.987135   1.959753   2.444821   1.774000   2.121320
    12  H    3.925149   3.767129   2.932283   2.683392   3.522201
    13  X    4.907163   3.714890   3.257087   3.074180   3.828302
    14  O    4.696161   4.655192   3.685311   3.600998   4.469601
    15  H    4.643070   5.175205   4.106764   3.923040   4.810797
                   11         12         13         14         15
    11  X    0.000000
    12  H    2.517794   0.000000
    13  X    2.022200   1.500000   0.000000
    14  O    3.326938   0.947400   1.774138   0.000000
    15  H    4.020569   1.508660   2.686544   0.947400   0.000000
 Symmetry turned off by external request.
 Stoichiometry    C2H8O2
 Framework group  C1[X(C2H8O2)]
 Deg. of freedom    30
 Full point group                 C1      NOp   1
 Rotational constants (GHZ):     17.1005209      2.1149724      2.0508145
 Standard basis: 6-31G(d) (6D, 7F)
 Integral buffers will be    131072 words long.
 Raffenetti 1 integral format.
 Two-electron integral symmetry is turned off.
    76 basis functions,   144 primitive gaussians,    76 cartesian basis functions
    18 alpha electrons       18 beta electrons
       nuclear repulsion energy       128.2168266540 Hartrees.
 NAtoms=   12 NActive=   12 NUniq=   12 SFac= 7.50D-01 NAtFMM=   80 NAOKFM=F Big=F
 One-electron integrals computed using PRISM.
 NBasis=    76 RedAO= T  NBF=    76
 NBsUse=    76 1.00D-06 NBFU=    76
 Initial guess read from the read-write file.
 B after Tr=     0.000000    0.000000    0.000000
         Rot=    1.000000    0.000000    0.000000    0.000000 Ang=   0.00 deg.
 Requested convergence on RMS density matrix=1.00D-08 within 128 cycles.
 Requested convergence on MAX density matrix=1.00D-06.
 Requested convergence on             energy=1.00D-06.
 No special actions if energy rises.
 Keep R1 ints in memory in canonical form, NReq=5139081.
 SCF Done:  E(RHF) =  -230.094425081     A.U. after    7 cycles
             Convg  =    0.6251D-08             -V/T =  2.0015
 Calling FoFJK, ICntrl=      2127 FMM=F ISym2X=0 I1Cent= 0 IOpClX= 0 NMat=1 NMatS=1 NMatT=0.
 -------------------------------------------------------------------
 Center     Atomic                   Forces (Hartrees/Bohr)
 Number     Number              X              Y              Z
 -------------------------------------------------------------------
      1        6           0.000676310   -0.000902161    0.000081653
      2        6          -0.004877002    0.005029613   -0.000573763
      3        8           0.000452418   -0.002633149    0.000856682
      4        1           0.000604327    0.000039161   -0.000062522
      5        1          -0.000129793    0.000038503   -0.000034437
      6        1          -0.000267007    0.000023090   -0.000074872
      7        1           0.001056244   -0.000905535   -0.000666831
      8        1           0.000327600   -0.000250614    0.000298863
      9        1           0.001693061   -0.000688217   -0.000088797
     10        1          -0.002229103    0.000009948    0.004302974
     11        8           0.002610119   -0.000485076   -0.004825463
     12        1           0.000082827    0.000724437    0.000786514
 -------------------------------------------------------------------
 Cartesian Forces:  Max     0.005029613 RMS     0.001825625
 -----------------------------------------------------------------------------------------------
                       Internal Coordinate Forces (Hartree/Bohr or radian)
  Cent   Atom   N1       Length/X         N2         Alpha/Y        N3         Beta/Z          J
 -----------------------------------------------------------------------------------------------
      1  C            0.000676(     1)     -0.000902(    16)      0.000082(    31)
      2  C           -0.004877(     2)      0.005030(    17)     -0.000574(    32)
      3  O            0.001123(     3)     -0.002368(    18)      0.000880(    33)
      4  H            0.000604(     4)      0.000039(    19)     -0.000063(    34)
      5  H           -0.000130(     5)      0.000039(    20)     -0.000034(    35)
      6  H           -0.000267(     6)      0.000023(    21)     -0.000075(    36)
      7  H            0.001056(     7)     -0.000906(    22)     -0.000667(    37)
      8  H            0.000328(     8)     -0.000251(    23)      0.000299(    38)
      9  H            0.001693(     9)     -0.000688(    24)     -0.000089(    39)
         X           -0.000003(    10)      0.000005(    25)     -0.000002(    40)
         X           -0.000204(    11)     -0.000021(    26)      0.000243(    41)
     10  H        3   0.000115(    12)     11  -0.000900(    27)     10   0.000018(    42)     0
         X       12   0.000000(    13)      3   0.001217(    28)     11  -0.000435(    43)     0
     11  O       12   0.004824(    14)     13   0.001217(    29)     11  -0.000608(    44)     0
     12  H       14  -0.001047(    15)     12  -0.000415(    30)     13   0.000016(    45)     0
 -----------------------------------------------------------------------------------------------
 Internal  Forces:  Max     0.005029613 RMS     0.001443585

 GradGradGradGradGradGradGradGradGradGradGradGradGradGradGradGradGradGrad
 Berny optimization.
 Search for a local minimum.
 Step number   6 out of a maximum of  100
 All quantities printed in internal units (Hartrees-Bohrs-Radians)
[...]
     9  H    2.639085   1.936451   0.947148   3.624795   2.548585
    10  X    1.794373   1.336527   1.500001   2.620090   1.650787
    11  X    3.458444   2.054393   1.499999   4.163541   3.716066
    12  H    4.089854   3.062261   2.028535   4.950190   4.594198
    13  X    4.771669   3.409904   2.522886   5.524377   5.236355
    14  O    4.959237   3.956784   2.975935   5.786279   5.502958
    15  H    5.094133   4.338828   3.356249   5.952290   5.618925
                    6          7          8          9         10
     6  H    0.000000
     7  H    3.055152   0.000000
     8  H    2.493020   1.747843   0.000000
     9  H    2.996139   2.309779   2.790406   0.000000
    10  X    2.537169   1.458412   2.411360   1.226646   0.000000
    11  X    3.987135   1.959753   2.444821   1.774000   2.121320
    12  H    3.930049   3.772972   2.936945   2.689460   3.528536
    13  X    4.911083   3.720814   3.261285   3.079478   3.834132
    14  O    4.701534   4.661209   3.690648   3.607186   4.475936
    15  H    4.643266   5.177883   4.104412   3.932216   4.817017
                   11         12         13         14         15
    11  X    0.000000
    12  H    2.522885   0.000000
    13  X    2.028535   1.500000   0.000000
    14  O    3.332594   0.947400   1.774138   0.000000
    15  H    4.026694   1.508660   2.688106   0.947400   0.000000
 Symmetry turned off by external request.
 Stoichiometry    C2H8O2
 Framework group  C1[X(C2H8O2)]
 Deg. of freedom    30
 Full point group                 C1      NOp   1
 Rotational constants (GHZ):     17.0838861      2.1100608      2.0457892
 Standard basis: 6-31G(d) (6D, 7F)
 Integral buffers will be    131072 words long.
 Raffenetti 1 integral format.
 Two-electron integral symmetry is turned off.
    76 basis functions,   144 primitive gaussians,    76 cartesian basis functions
    18 alpha electrons       18 beta electrons
       nuclear repulsion energy       128.1549886528 Hartrees.
 NAtoms=   12 NActive=   12 NUniq=   12 SFac= 7.50D-01 NAtFMM=   80 NAOKFM=F Big=F
 One-electron integrals computed using PRISM.
 NBasis=    76 RedAO= T  NBF=    76
 NBsUse=    76 1.00D-06 NBFU=    76
 Initial guess read from the read-write file.
 B after Tr=     0.000000    0.000000    0.000000
         Rot=    1.000000    0.000000    0.000000    0.000000 Ang=   0.00 deg.
 Requested convergence on RMS density matrix=1.00D-08 within 128 cycles.
 Requested convergence on MAX density matrix=1.00D-06.
 Requested convergence on             energy=1.00D-06.
 No special actions if energy rises.
 Keep R1 ints in memory in canonical form, NReq=5139081.
 SCF Done:  E(RHF) =  -230.094425901     A.U. after    7 cycles
             Convg  =    0.9761D-09             -V/T =  2.0015
 Calling FoFJK, ICntrl=      2127 FMM=F ISym2X=0 I1Cent= 0 IOpClX= 0 NMat=1 NMatS=1 NMatT=0.
 -------------------------------------------------------------------
 Center     Atomic                   Forces (Hartrees/Bohr)
 Number     Number              X              Y              Z
 -------------------------------------------------------------------
      1        6           0.000670287   -0.000893515    0.000084437
      2        6          -0.004836403    0.004988492   -0.000559264
      3        8           0.000507847   -0.002599728    0.000756648
      4        1           0.000600387    0.000038295   -0.000062714
      5        1          -0.000128382    0.000039031   -0.000036867
      6        1          -0.000267121    0.000020033   -0.000074716
      7        1           0.001047652   -0.000898157   -0.000665570
      8        1           0.000323011   -0.000242246    0.000297948
      9        1           0.001688760   -0.000687550   -0.000094941
     10        1          -0.002245375   -0.000003236    0.004325320
     11        8           0.002548064   -0.000463812   -0.004770773
     12        1           0.000091273    0.000702392    0.000800492
 -------------------------------------------------------------------
 Cartesian Forces:  Max     0.004988492 RMS     0.001811907
 -----------------------------------------------------------------------------------------------
                       Internal Coordinate Forces (Hartree/Bohr or radian)
  Cent   Atom   N1       Length/X         N2         Alpha/Y        N3         Beta/Z          J
 -----------------------------------------------------------------------------------------------
      1  C            0.000670(     1)     -0.000894(    16)      0.000084(    31)
      2  C           -0.004836(     2)      0.004988(    17)     -0.000559(    32)
      3  O            0.001119(     3)     -0.002363(    18)      0.000879(    33)
      4  H            0.000600(     4)      0.000038(    19)     -0.000063(    34)
      5  H           -0.000128(     5)      0.000039(    20)     -0.000037(    35)
      6  H           -0.000267(     6)      0.000020(    21)     -0.000075(    36)
      7  H            0.001048(     7)     -0.000898(    22)     -0.000666(    37)
      8  H            0.000323(     8)     -0.000242(    23)      0.000298(    38)
      9  H            0.001689(     9)     -0.000688(    24)     -0.000095(    39)
         X           -0.000011(    10)      0.000015(    25)     -0.000008(    40)
         X           -0.000207(    11)     -0.000017(    26)      0.000241(    41)
     10  H        3   0.000000(    12)     11  -0.000900(    27)     10   0.000058(    42)     0
         X       12   0.000000(    13)      3   0.001222(    28)     11  -0.000450(    43)     0
     11  O       12   0.004737(    14)     13   0.001222(    29)     11  -0.000609(    44)     0
     12  H       14  -0.001042(    15)     12  -0.000429(    30)     13   0.000000(    45)     0
 -----------------------------------------------------------------------------------------------
 Internal  Forces:  Max     0.004988492 RMS     0.001430106

 GradGradGradGradGradGradGradGradGradGradGradGradGradGradGradGradGradGrad
 Berny optimization.
 Search for a local minimum.
 Step number  14 out of a maximum of  100
 All quantities printed in internal units (Hartrees-Bohrs-Radians)
 Update second derivatives using D2CorN and points   12   13   14
 DE= -1.23D-08 DEPred=-1.18D-08 R= 1.04D+00
 Trust test= 1.04D+00 RLast= 1.84D-03 DXMaxT set to 2.12D-01
 The second derivative matrix:
                          roh       phi
           roh          0.00932
           phi          0.00004   0.00087
     Eigenvalues ---    0.00087   0.00932
 RFO step:  Lambda= 0.00000000D+00 EMin= 8.74273849D-04
 Quartic linear search produced a step of  0.01467.
 Variable       Old X    -DE/DX   Delta X   Delta X   Delta X     New X
                                 (Linear)    (Quad)   (Total)
   roh        3.83338   0.00000  -0.00002   0.00001  -0.00001   3.83336
   phi       -3.30936   0.00000  -0.00001  -0.00014  -0.00016  -3.30951
         Item               Value     Threshold  Converged?
 Maximum Force            0.000000     0.000450     YES
 RMS     Force            0.000000     0.000300     YES
 Maximum Displacement     0.000156     0.001800     YES
 RMS     Displacement     0.000110     0.001200     YES
 Predicted change in Energy=-1.172926D-11
 Optimization completed.
    -- Stationary point found.
                       ----------------------------
                       !   Optimized Parameters   !
                       ! (Angstroms and Degrees)  !
 ----------------------                            ----------------------
 !      Name          Value   Derivative information (Atomic Units)     !
 ------------------------------------------------------------------------
 !       roh         2.0285   -DE/DX =    0.0                           !
 !       phi      -189.6122   -DE/DX =    0.0                           !
 ------------------------------------------------------------------------
 GradGradGradGradGradGradGradGradGradGradGradGradGradGradGradGradGradGrad

 ---------------------------------------------------------------------------------------------------
                            Z-MATRIX (ANGSTROMS AND DEGREES)
   CD    Cent   Atom    N1       Length/X        N2       Alpha/Y        N3        Beta/Z          J
 ---------------------------------------------------------------------------------------------------
      1      1  C        0  -1.209050         -0.236510         -0.019180
      2      2  C        0   0.089910          0.552930          0.044910
      3      3  O        0   1.222000         -0.262490         -0.110010
      4      4  H        0  -2.067380          0.423870          0.062070
      5      5  H        0  -1.267690         -0.957740          0.792470
      6      6  H        0  -1.276370         -0.778020         -0.956280
      7      7  H        0   0.145550          1.112980          0.976650
      8      8  H        0   0.131480          1.270430         -0.764030
      9      9  H        0   1.273180         -0.870090          0.614760
     10         X        0   0.245700         -0.341150          1.026060
     11         X        0   2.041350          0.728250          0.662710
     12     10  H        3   2.028535(    11)     11   90.000(    24)     10  180.000(    36)      0
     13         X       12   1.500000(    12)      3   90.000(    25)     11    0.000(    37)      0
     14     11  O       12   0.947400(    13)     13   90.000(    26)     11  180.000(    38)      0
     15     12  H       14   0.947400(    14)     12  105.540(    27)     13 -189.612(    39)      0
 ---------------------------------------------------------------------------------------------------
                         Z-Matrix orientation:                         
 ---------------------------------------------------------------------
 Center     Atomic      Atomic             Coordinates (Angstroms)
 Number     Number       Type             X           Y           Z
 ---------------------------------------------------------------------
      1          6           0       -1.209050   -0.236510   -0.019180
      2          6           0        0.089910    0.552930    0.044910
      3          8           0        1.222000   -0.262490   -0.110010
      4          1           0       -2.067380    0.423870    0.062070
      5          1           0       -1.267690   -0.957740    0.792470
      6          1           0       -1.276370   -0.778020   -0.956280
      7          1           0        0.145550    1.112980    0.976650
      8          1           0        0.131480    1.270430   -0.764030
      9          1           0        1.273180   -0.870090    0.614760
     10         -1           0        0.245700   -0.341150    1.026060
     11         -1           0        2.041350    0.728250    0.662710
     12          1           0        2.542305   -0.156113   -1.646380
     13         -1           0        3.361656    0.834628   -0.873659
     14          8           0        3.158936   -0.106431   -2.363921
     15          1           0        2.912909   -0.801693   -2.958605
 ---------------------------------------------------------------------
                    Distance matrix (angstroms):
                    1          2          3          4          5
     1  C    0.000000
     2  C    1.521388   0.000000
     3  O    2.432885   1.403758   0.000000
     4  H    1.086017   2.161215   3.364628   0.000000
     5  H    1.087376   2.164266   2.737955   1.755515   0.000000
     6  H    1.084399   2.154189   2.687712   1.762746   1.757982
     7  H    2.155862   1.088527   2.057059   2.491664   2.513772
     8  H    2.150044   1.082090   1.991688   2.496816   3.056977
     9  H    2.639085   1.936451   0.947148   3.624795   2.548585
    10  X    1.794373   1.336527   1.500001   2.620090   1.650787
    11  X    3.458444   2.054393   1.499999   4.163541   3.716066
    12  H    4.089854   3.062261   2.028535   4.950190   4.594198
    13  X    4.771669   3.409904   2.522886   5.524377   5.236355
    14  O    4.959237   3.956784   2.975935   5.786279   5.502958
    15  H    5.094133   4.338828   3.356249   5.952290   5.618925
                    6          7          8          9         10
     6  H    0.000000
     7  H    3.055152   0.000000
     8  H    2.493020   1.747843   0.000000
     9  H    2.996139   2.309779   2.790406   0.000000
    10  X    2.537169   1.458412   2.411360   1.226646   0.000000
    11  X    3.987135   1.959753   2.444821   1.774000   2.121320
    12  H    3.930049   3.772972   2.936945   2.689460   3.528536
    13  X    4.911083   3.720814   3.261285   3.079478   3.834132
    14  O    4.701534   4.661209   3.690648   3.607186   4.475936
    15  H    4.643266   5.177883   4.104412   3.932216   4.817017
                   11         12         13         14         15
    11  X    0.000000
    12  H    2.522885   0.000000
    13  X    2.028535   1.500000   0.000000
    14  O    3.332594   0.947400   1.774138   0.000000
    15  H    4.026694   1.508660   2.688106   0.947400   0.000000
 Symmetry turned off by external request.
 Stoichiometry    C2H8O2
 Framework group  C1[X(C2H8O2)]
 Deg. of freedom    30
 Full point group                 C1      NOp   1
 Rotational constants (GHZ):     17.0838861      2.1100608      2.0457892

 **********************************************************************

            Population analysis using the SCF density.

 **********************************************************************

 Alpha  occ. eigenvalues --  -20.57865 -20.52106 -11.28480 -11.22605  -1.38467
 Alpha  occ. eigenvalues --   -1.31190  -1.02549  -0.86560  -0.71356  -0.68263
 Alpha  occ. eigenvalues --   -0.63974  -0.62154  -0.56315  -0.54451  -0.53227
 Alpha  occ. eigenvalues --   -0.49294  -0.46502  -0.45631
 Alpha virt. eigenvalues --    0.20402   0.25628   0.26263   0.28844   0.30097
 Alpha virt. eigenvalues --    0.31047   0.33137   0.38416   0.41077   0.44589
 Alpha virt. eigenvalues --    0.71739   0.73795   0.77800   0.80184   0.88735
 Alpha virt. eigenvalues --    0.90810   1.06154   1.07048   1.13974   1.14816
 Alpha virt. eigenvalues --    1.16397   1.17189   1.18835   1.20131   1.20882
 Alpha virt. eigenvalues --    1.21491   1.23349   1.28269   1.33662   1.42482
 Alpha virt. eigenvalues --    1.43679   1.59255   1.67404   1.72000   1.80605
 Alpha virt. eigenvalues --    1.94187   2.02209   2.05542   2.06286   2.09171
 Alpha virt. eigenvalues --    2.09894   2.21212   2.26631   2.43027   2.45325
 Alpha virt. eigenvalues --    2.54875   2.62443   2.69703   2.72753   2.75400
 Alpha virt. eigenvalues --    2.87050   2.98625   3.02662   3.18069   4.08830
 Alpha virt. eigenvalues --    4.29737   4.60074   4.81597
          Condensed to atoms (all electrons):
              1          2          3          4          5          6
     1  C    5.159956   0.346360  -0.051958   0.377858   0.386614   0.388022
     2  C    0.346360   4.762213   0.203347  -0.032449  -0.035923  -0.035002
     3  O   -0.051958   0.203347   8.395725   0.003169  -0.000615   0.001887
     4  H    0.377858  -0.032449   0.003169   0.532921  -0.025845  -0.023161
     5  H    0.386614  -0.035923  -0.000615  -0.025845   0.548927  -0.029417
     6  H    0.388022  -0.035002   0.001887  -0.023161  -0.029417   0.520530
     7  H   -0.053977   0.403799  -0.037384   0.000967  -0.004262   0.004636
     8  H   -0.044695   0.410174  -0.038227  -0.000814   0.004181  -0.004299
     9  H   -0.003266  -0.024217   0.260894  -0.000056   0.003278  -0.000376
    10  H    0.000155  -0.001203   0.021684  -0.000004  -0.000008   0.000036
    11  O   -0.000013   0.000203  -0.006596   0.000000   0.000000  -0.000002
    12  H   -0.000001   0.000002   0.000314   0.000000   0.000000   0.000002
              7          8          9         10         11         12
     1  C   -0.053977  -0.044695  -0.003266   0.000155  -0.000013  -0.000001
     2  C    0.403799   0.410174  -0.024217  -0.001203   0.000203   0.000002
     3  O   -0.037384  -0.038227   0.260894   0.021684  -0.006596   0.000314
     4  H    0.000967  -0.000814  -0.000056  -0.000004   0.000000   0.000000
     5  H   -0.004262   0.004181   0.003278  -0.000008   0.000000   0.000000
     6  H    0.004636  -0.004299  -0.000376   0.000036  -0.000002   0.000002
     7  H    0.576669  -0.036532  -0.004597   0.000169  -0.000012   0.000001
     8  H   -0.036532   0.524106   0.005658  -0.000778   0.000430  -0.000007
     9  H   -0.004597   0.005658   0.317764  -0.000821   0.000319  -0.000011
    10  H    0.000169  -0.000778  -0.000821   0.254550   0.260380  -0.016963
    11  O   -0.000012   0.000430   0.000319   0.260380   8.401090   0.266730
    12  H    0.000001  -0.000007  -0.000011  -0.016963   0.266730   0.329991
 Mulliken atomic charges:
              1
     1  C   -0.505055
     2  C    0.002696
     3  O   -0.752240
     4  H    0.167412
     5  H    0.153070
     6  H    0.177142
     7  H    0.150523
     8  H    0.180804
     9  H    0.445431
    10  H    0.482804
    11  O   -0.922529
    12  H    0.419941
 Sum of Mulliken atomic charges =   0.00000
 Mulliken charges with hydrogens summed into heavy atoms:
              1
     1  C   -0.007430
     2  C    0.334023
     3  O   -0.306809
    11  O   -0.019784
 Sum of Mulliken charges with hydrogens summed into heavy atoms =   0.00000
 Electronic spatial extent (au):  <R**2>=            757.0121
 Charge=              0.0000 electrons
 Dipole moment (field-independent basis, Debye):
    X=             -3.3215    Y=             -1.4616    Z=              2.0101  Tot=              4.1484
 Quadrupole moment (field-independent basis, Debye-Ang):
   XX=            -40.0119   YY=            -23.9946   ZZ=            -25.9938
   XY=             -4.7957   XZ=              7.2001   YZ=              2.7453
 Traceless Quadrupole moment (field-independent basis, Debye-Ang):
   XX=            -10.0118   YY=              6.0055   ZZ=              4.0063
   XY=             -4.7957   XZ=              7.2001   YZ=              2.7453
 Octapole moment (field-independent basis, Debye-Ang**2):
  XXX=           -109.9330  YYY=              0.1643  ZZZ=             42.8231  XYY=            -14.7098
  XXY=            -10.1177  XXZ=             43.9906  XZZ=            -26.0720  YZZ=            -13.1218
  YYZ=             13.7033  XYZ=              9.8845
 Hexadecapole moment (field-independent basis, Debye-Ang**3):
 XXXX=           -750.0017 YYYY=            -58.8921 ZZZZ=           -226.1402 XXXY=            -22.9231
 XXXZ=            259.2794 YYYX=              2.2850 YYYZ=             -6.9196 ZZZX=            147.4440
 ZZZY=             31.6318 XXYY=            -91.2084 XXZZ=           -178.8768 YYZZ=            -42.3399
 XXYZ=             27.5877 YYXZ=             41.8349 ZZXY=            -34.8103
 N-N= 1.281549886528D+02 E-N=-7.984339348534D+02  KE= 2.297549024965D+02
 1\1\GINC-BLOGIN3\FOpt\RHF\6-31G(d)\C2H8O2\RUPAKHETIC\23-Jun-2017\1\\#H
 F/6-31G* nosymm SCF=Tight opt=(Z-MATRIX,MaxCycle=200)\\Mol-Water Dimer
 \\0,1\C,0,-1.20905,-0.23651,-0.01918\C,0,0.08991,0.55293,0.04491\O,0,1
 .222,-0.26249,-0.11001\H,0,-2.06738,0.42387,0.06207\H,0,-1.26769,-0.95
 774,0.79247\H,0,-1.27637,-0.77802,-0.95628\H,0,0.14555,1.11298,0.97665
 \H,0,0.13148,1.27043,-0.76403\H,0,1.27318,-0.87009,0.61476\X,0,0.2457,
 -0.34115,1.02606\X,0,2.04135,0.72825,0.66271\H,3,roh,11,90.,10,180.,0\
 X,12,1.5,3,90.,11,0.,0\O,12,0.9474,13,90.,11,180.,0\H,14,0.9474,12,105
 .5395,13,phi,0\\roh=2.02853493\phi=-189.61222266\\Version=EM64L-G09Rev
 A.02\HF=-230.0944259\RMSD=9.761e-10\RMSF=1.812e-03\Dipole=-1.3067645,-
 0.5750355,0.790831\Quadrupole=-7.4435457,4.4649426,2.9786031,-3.565456
 7,5.3530721,2.0410376\PG=C01 [X(C2H8O2)]\\@


 CONFIDENCE: THAT QUIET ASSURED FEELING YOU HAVE
 JUST BEFORE YOU FALL FLAT ON YOUR FACE.
 Job cpu time:  0 days  0 hours  2 minutes 38.2 seconds.
 File lengths (MBytes):  RWF=     67 Int=      0 D2E=      0 Chk=      2 Scr=      2
 Normal termination of Gaussian 09 at Fri Jun 23 14:10:10 2017.
