 Entering Gaussian System, Link 0=/homes/huanglei/prog/g09/g09
 Initial command:
 /homes/huanglei/prog/g09/l1.exe /lcrc/project/Drude/chetan/tmp/3/Gau-70029.inp -scrdir=/lcrc/project/Drude/chetan/tmp/3/
 Entering Link 1 = /homes/huanglei/prog/g09/l1.exe PID=     70031.
  
 Copyright (c) 1988,1990,1992,1993,1995,1998,2003,2009, Gaussian, Inc.
                  All Rights Reserved.
  
 This is part of the Gaussian(R) 09 program.  It is based on
 the Gaussian(R) 03 system (copyright 2003, Gaussian, Inc.),
 the Gaussian(R) 98 system (copyright 1998, Gaussian, Inc.),
 the Gaussian(R) 94 system (copyright 1995, Gaussian, Inc.),
 the Gaussian 92(TM) system (copyright 1992, Gaussian, Inc.),
 the Gaussian 90(TM) system (copyright 1990, Gaussian, Inc.),
 the Gaussian 88(TM) system (copyright 1988, Gaussian, Inc.),
 the Gaussian 86(TM) system (copyright 1986, Carnegie Mellon
 University), and the Gaussian 82(TM) system (copyright 1983,
 Carnegie Mellon University). Gaussian is a federally registered
 trademark of Gaussian, Inc.
  
 This software contains proprietary and confidential information,
 including trade secrets, belonging to Gaussian, Inc.
  
 This software is provided under written license and may be
 used, copied, transmitted, or stored only in accord with that
 written license.
  
 The following legend is applicable only to US Government
 contracts under FAR:
  
                    RESTRICTED RIGHTS LEGEND
  
 Use, reproduction and disclosure by the US Government is
 subject to restrictions as set forth in subparagraphs (a)
 and (c) of the Commercial Computer Software - Restricted
 Rights clause in FAR 52.227-19.
  
 Gaussian, Inc.
 340 Quinnipiac St., Bldg. 40, Wallingford CT 06492
  
  
 ---------------------------------------------------------------
 Warning -- This program may not be used in any manner that
 competes with the business of Gaussian, Inc. or will provide
 assistance to any competitor of Gaussian, Inc.  The licensee
 of this program is prohibited from giving any competitor of
 Gaussian, Inc. access to this program.  By using this program,
 the user acknowledges that Gaussian, Inc. is engaged in the
 business of creating and licensing software in the field of
 computational chemistry and represents and warrants to the
 licensee that it is not a competitor of Gaussian, Inc. and that
 it will not use this program in any manner prohibited above.
 ---------------------------------------------------------------
  

 Cite this work as:
 Gaussian 09, Revision A.02,
 M. J. Frisch, G. W. Trucks, H. B. Schlegel, G. E. Scuseria, 
 M. A. Robb, J. R. Cheeseman, G. Scalmani, V. Barone, B. Mennucci, 
 G. A. Petersson, H. Nakatsuji, M. Caricato, X. Li, H. P. Hratchian, 
 A. F. Izmaylov, J. Bloino, G. Zheng, J. L. Sonnenberg, M. Hada, 
 M. Ehara, K. Toyota, R. Fukuda, J. Hasegawa, M. Ishida, T. Nakajima, 
 Y. Honda, O. Kitao, H. Nakai, T. Vreven, J. A. Montgomery, Jr., 
 J. E. Peralta, F. Ogliaro, M. Bearpark, J. J. Heyd, E. Brothers, 
 K. N. Kudin, V. N. Staroverov, R. Kobayashi, J. Normand, 
 K. Raghavachari, A. Rendell, J. C. Burant, S. S. Iyengar, J. Tomasi, 
 M. Cossi, N. Rega, J. M. Millam, M. Klene, J. E. Knox, J. B. Cross, 
 V. Bakken, C. Adamo, J. Jaramillo, R. Gomperts, R. E. Stratmann, 
 O. Yazyev, A. J. Austin, R. Cammi, C. Pomelli, J. W. Ochterski, 
 R. L. Martin, K. Morokuma, V. G. Zakrzewski, G. A. Voth, 
 P. Salvador, J. J. Dannenberg, S. Dapprich, A. D. Daniels, 
 O. Farkas, J. B. Foresman, J. V. Ortiz, J. Cioslowski, 
 and D. J. Fox, Gaussian, Inc., Wallingford CT, 2009.
 
 ******************************************
 Gaussian 09:  EM64L-G09RevA.02 11-Jun-2009
                23-Jun-2017 
 ******************************************
 %mem=1GB
 %nproc=3
 Will use up to    3 processors via shared memory.
 ----------------------------------
 #HF/6-31G* nosymm opt=ModRedundant
 ----------------------------------
 1/18=120,19=15,38=1/1,3;
 2/9=110,12=2,15=1,17=6,18=5,40=1/2;
 3/5=1,6=6,7=1,11=9,16=1,25=1,30=1,71=1/1,2,3;
 4//1;
 5/5=2,38=5/2;
 6/7=2,8=2,9=2,10=2,28=1/1;
 7/30=1/1,2,3,16;
 1/18=20,19=15/3(2);
 2/9=110,15=1/2;
 99//99;
 2/9=110,15=1/2;
 3/5=1,6=6,7=1,11=9,16=1,25=1,30=1,71=1/1,2,3;
 4/5=5,16=3/1;
 5/5=2,38=5/2;
 7/30=1/1,2,3,16;
 1/18=20,19=15/3(-5);
 2/9=110,15=1/2;
 6/7=2,8=2,9=2,10=2,19=2,28=1/1;
 99/9=1/99;
 -----------------
 Mol dihedral scan
 -----------------
 Symbolic Z-matrix:
 Charge =  0 Multiplicity = 1
 C                    -1.20905  -0.23651  -0.01918 
 C                     0.08991   0.55293   0.04491 
 O                     1.222    -0.26249  -0.11001 
 H                    -2.06738   0.42387   0.06207 
 H                    -1.26769  -0.95774   0.79247 
 H                    -1.27637  -0.77802  -0.95628 
 H                     0.14555   1.11298   0.97665 
 H                     0.13148   1.27043  -0.76403 
 H                     1.44371  -0.32105  -1.02898 
 
 The following ModRedundant input section has been read:
 D    1    2    3    9 90.000 B                                                
 D    1    2    3    9 S   9 10.000                                            
 Iteration  1 RMS(Cart)=  0.00000027 RMS(Int)=  0.00000025
 Iteration  1 RMS(Cart)=  0.00000013 RMS(Int)=  0.00000012

 GradGradGradGradGradGradGradGradGradGradGradGradGradGradGradGradGradGrad
 Berny optimization.
 Initialization pass.
                           ----------------------------
                           !    Initial Parameters    !
                           ! (Angstroms and Degrees)  !
 --------------------------                            --------------------------
 ! Name  Definition              Value          Derivative Info.                !
 --------------------------------------------------------------------------------
 ! R1    R(1,2)                  1.5214         estimate D2E/DX2                !
 ! R2    R(1,4)                  1.086          estimate D2E/DX2                !
 ! R3    R(1,5)                  1.0874         estimate D2E/DX2                !
 ! R4    R(1,6)                  1.0844         estimate D2E/DX2                !
 ! R5    R(2,3)                  1.4038         estimate D2E/DX2                !
 ! R6    R(2,7)                  1.0885         estimate D2E/DX2                !
 ! R7    R(2,8)                  1.0821         estimate D2E/DX2                !
 ! R8    R(3,9)                  0.9471         estimate D2E/DX2                !
 ! A1    A(2,1,4)              110.862          estimate D2E/DX2                !
 ! A2    A(2,1,5)              111.0247         estimate D2E/DX2                !
 ! A3    A(2,1,6)              110.3972         estimate D2E/DX2                !
 ! A4    A(4,1,5)              107.7495         estimate D2E/DX2                !
 ! A5    A(4,1,6)              108.6168         estimate D2E/DX2                !
 ! A6    A(5,1,6)              108.0878         estimate D2E/DX2                !
 ! A7    A(1,2,3)              112.4885         estimate D2E/DX2                !
 ! A8    A(1,2,7)              110.284          estimate D2E/DX2                !
 ! A9    A(1,2,8)              110.2044         estimate D2E/DX2                !
 ! A10   A(3,2,7)              110.6163         estimate D2E/DX2                !
 ! A11   A(3,2,8)              105.7643         estimate D2E/DX2                !
 ! A12   A(7,2,8)              107.2643         estimate D2E/DX2                !
 ! A13   A(2,3,9)              109.3764         estimate D2E/DX2                !
 ! D1    D(4,1,2,3)           -177.646          estimate D2E/DX2                !
 ! D2    D(4,1,2,7)             58.3475         estimate D2E/DX2                !
 ! D3    D(4,1,2,8)            -59.8923         estimate D2E/DX2                !
 ! D4    D(5,1,2,3)             62.6188         estimate D2E/DX2                !
 ! D5    D(5,1,2,7)            -61.3877         estimate D2E/DX2                !
 ! D6    D(5,1,2,8)           -179.6276         estimate D2E/DX2                !
 ! D7    D(6,1,2,3)            -57.235          estimate D2E/DX2                !
 ! D8    D(6,1,2,7)            178.7585         estimate D2E/DX2                !
 ! D9    D(6,1,2,8)             60.5186         estimate D2E/DX2                !
 ! D10   D(1,2,3,9)             90.0            Scan                            !
 ! D11   D(7,2,3,9)           -146.1778         estimate D2E/DX2                !
 ! D12   D(8,2,3,9)            -30.3492         estimate D2E/DX2                !
 --------------------------------------------------------------------------------
 Trust Radius=3.00D-01 FncErr=1.00D-07 GrdErr=1.00D-07
 Number of optimizations in scan=  10
 Number of steps in this run=  43 maximum allowed number of steps= 100.
 GradGradGradGradGradGradGradGradGradGradGradGradGradGradGradGradGradGrad

                          Input orientation:                          
 ---------------------------------------------------------------------
 Center     Atomic      Atomic             Coordinates (Angstroms)
 Number     Number       Type             X           Y           Z
 ---------------------------------------------------------------------
      1          6           0       -1.209050   -0.236510   -0.019180
      2          6           0        0.089910    0.552930    0.044910
      3          8           0        1.222000   -0.262490   -0.110010
      4          1           0       -2.067380    0.423870    0.062070
      5          1           0       -1.267690   -0.957740    0.792470
      6          1           0       -1.276370   -0.778020   -0.956280
      7          1           0        0.145550    1.112980    0.976650
      8          1           0        0.131480    1.270430   -0.764030
      9          1           0        1.443709   -0.321050   -1.028980
 ---------------------------------------------------------------------
                    Distance matrix (angstroms):
                    1          2          3          4          5
     1  C    0.000000
     2  C    1.521388   0.000000
     3  O    2.432885   1.403758   0.000000
     4  H    1.086017   2.161215   3.364628   0.000000
     5  H    1.087376   2.164266   2.737955   1.755515   0.000000
     6  H    1.084399   2.154189   2.687712   1.762746   1.757982
     7  H    2.155863   1.088527   2.057059   2.491664   2.513773
     8  H    2.150044   1.082090   1.991688   2.496816   3.056977
     9  H    2.839714   1.936454   0.947149   3.751406   3.327873
                    6          7          8          9
     6  H    0.000000
     7  H    3.055153   0.000000
     8  H    2.493019   1.747843   0.000000
     9  H    2.759155   2.786434   2.079653   0.000000
 Symmetry turned off by external request.
 Stoichiometry    C2H6O
 Framework group  C1[X(C2H6O)]
 Deg. of freedom    21
 Full point group                 C1      NOp   1
 Rotational constants (GHZ):     35.5561466      9.1857280      8.2036740
 Standard basis: 6-31G(d) (6D, 7F)
 Integral buffers will be    131072 words long.
 Raffenetti 1 integral format.
 Two-electron integral symmetry is turned off.
    57 basis functions,   108 primitive gaussians,    57 cartesian basis functions
    13 alpha electrons       13 beta electrons
       nuclear repulsion energy        82.1643600631 Hartrees.
 NAtoms=    9 NActive=    9 NUniq=    9 SFac= 7.50D-01 NAtFMM=   80 NAOKFM=F Big=F
 One-electron integrals computed using PRISM.
 NBasis=    57 RedAO= T  NBF=    57
 NBsUse=    57 1.00D-06 NBFU=    57
 Harris functional with IExCor=  205 diagonalized for initial guess.
 ExpMin= 1.61D-01 ExpMax= 5.48D+03 ExpMxC= 8.25D+02 IAcc=1 IRadAn=         1 AccDes= 0.00D+00
 HarFok:  IExCor=  205 AccDes= 0.00D+00 IRadAn=         1 IDoV= 1
 ScaDFX=  1.000000  1.000000  1.000000  1.000000
 FoFCou: FMM=F IPFlag=           0 FMFlag=      100000 FMFlg1=           0
         NFxFlg=           0 DoJE=T BraDBF=F KetDBF=T FulRan=T
         Omega=  0.000000  0.000000  1.000000  0.000000  0.000000 ICntrl=     500 IOpCl=  0
         NMat0=    1 NMatS0=    1 NMatT0=    0 NMatD0=    1 NMtDS0=    0 NMtDT0=    0
         I1Cent=           4 NGrid=           0.
 Symmetry not used in FoFCou.
 Requested convergence on RMS density matrix=1.00D-08 within 128 cycles.
 Requested convergence on MAX density matrix=1.00D-06.
 Requested convergence on             energy=1.00D-06.
 No special actions if energy rises.
 Keep R1 ints in memory in canonical form, NReq=2215640.
 SCF Done:  E(RHF) =  -154.072910789     A.U. after   12 cycles
             Convg  =    0.4047D-08             -V/T =  2.0012

 **********************************************************************

            Population analysis using the SCF density.

 **********************************************************************

 Alpha  occ. eigenvalues --  -20.55162 -11.27139 -11.21136  -1.35996  -1.01058
 Alpha  occ. eigenvalues --   -0.84509  -0.69718  -0.63189  -0.58644  -0.55049
 Alpha  occ. eigenvalues --   -0.52558  -0.47155  -0.43510
 Alpha virt. eigenvalues --    0.21771   0.26904   0.30154   0.32062   0.32216
 Alpha virt. eigenvalues --    0.34395   0.41581   0.41813   0.73018   0.74786
 Alpha virt. eigenvalues --    0.79833   0.81971   0.89959   0.92108   1.07920
 Alpha virt. eigenvalues --    1.13102   1.16413   1.18386   1.19021   1.20769
 Alpha virt. eigenvalues --    1.24340   1.27903   1.30390   1.43816   1.63317
 Alpha virt. eigenvalues --    1.72264   1.77753   1.84377   2.03997   2.08447
 Alpha virt. eigenvalues --    2.22186   2.26764   2.44289   2.50458   2.56435
 Alpha virt. eigenvalues --    2.67243   2.69185   2.76863   2.87764   3.01446
 Alpha virt. eigenvalues --    3.19544   4.16177   4.60466   4.82359
          Condensed to atoms (all electrons):
              1          2          3          4          5          6
     1  C    5.158170   0.343893  -0.056923   0.373063   0.389400   0.385986
     2  C    0.343893   4.749098   0.210941  -0.033224  -0.032765  -0.035092
     3  O   -0.056923   0.210941   8.389472   0.003242   0.000944   0.001270
     4  H    0.373063  -0.033224   0.003242   0.554630  -0.026554  -0.025377
     5  H    0.389400  -0.032765   0.000944  -0.026554   0.522247  -0.027821
     6  H    0.385986  -0.035092   0.001270  -0.025377  -0.027821   0.545008
     7  H   -0.053340   0.406895  -0.033926   0.000924  -0.003854   0.004363
     8  H   -0.052609   0.409189  -0.041080  -0.000052   0.004600  -0.004259
     9  H   -0.000160  -0.023611   0.264124  -0.000151  -0.000268   0.001729
              7          8          9
     1  C   -0.053340  -0.052609  -0.000160
     2  C    0.406895   0.409189  -0.023611
     3  O   -0.033926  -0.041080   0.264124
     4  H    0.000924  -0.000052  -0.000151
     5  H   -0.003854   0.004600  -0.000268
     6  H    0.004363  -0.004259   0.001729
     7  H    0.545326  -0.036840   0.005039
     8  H   -0.036840   0.596621  -0.010138
     9  H    0.005039  -0.010138   0.324308
 Mulliken atomic charges:
              1
     1  C   -0.487480
     2  C    0.004674
     3  O   -0.738065
     4  H    0.153498
     5  H    0.174071
     6  H    0.154194
     7  H    0.165413
     8  H    0.134567
     9  H    0.439128
 Sum of Mulliken atomic charges =   0.00000
 Mulliken charges with hydrogens summed into heavy atoms:
              1
     1  C   -0.005717
     2  C    0.304654
     3  O   -0.298937
 Sum of Mulliken charges with hydrogens summed into heavy atoms =   0.00000
 Electronic spatial extent (au):  <R**2>=            193.9632
 Charge=              0.0000 electrons
 Dipole moment (field-independent basis, Debye):
    X=             -0.8909    Y=              0.7910    Z=             -1.3997  Tot=              1.8381
 Quadrupole moment (field-independent basis, Debye-Ang):
   XX=            -21.4517   YY=            -20.1032   ZZ=            -17.4455
   XY=              0.2932   XZ=             -2.6972   YZ=              0.7125
 Traceless Quadrupole moment (field-independent basis, Debye-Ang):
   XX=             -1.7849   YY=             -0.4364   ZZ=              2.2213
   XY=              0.2932   XZ=             -2.6972   YZ=              0.7125
 Octapole moment (field-independent basis, Debye-Ang**2):
  XXX=              4.2491  YYY=             -1.7324  ZZZ=              0.4817  XYY=              1.3036
  XXY=             -0.2463  XXZ=             -2.9968  XZZ=              4.9848  YZZ=             -1.4467
  YYZ=              1.0132  XYZ=              0.9681
 Hexadecapole moment (field-independent basis, Debye-Ang**3):
 XXXX=           -157.9838 YYYY=            -53.9035 ZZZZ=            -31.5603 XXXY=             -5.7250
 XXXZ=             -3.4396 YYYX=             -2.9928 YYYZ=             -1.5819 ZZZX=             -0.0340
 ZZZY=             -0.4320 XXYY=            -34.7691 XXZZ=            -27.6295 YYZZ=            -13.2253
 XXYZ=              0.9849 YYXZ=              0.4731 ZZXY=             -1.2595
 N-N= 8.216436006312D+01 E-N=-5.260669368669D+02  KE= 1.538888607363D+02
 Calling FoFJK, ICntrl=      2127 FMM=F ISym2X=0 I1Cent= 0 IOpClX= 0 NMat=1 NMatS=1 NMatT=0.
 -------------------------------------------------------------------
 Center     Atomic                   Forces (Hartrees/Bohr)
 Number     Number              X              Y              Z
 -------------------------------------------------------------------
      1        6           0.000647986   -0.001571350    0.003350777
      2        6          -0.000737970    0.003533712   -0.011838909
      3        8           0.003846517   -0.004536479    0.010016588
      4        1           0.000046406    0.000628751   -0.000894638
      5        1           0.001636794    0.000817632   -0.001565208
      6        1          -0.001063800   -0.000470186   -0.000767329
      7        1           0.005639754   -0.006134661   -0.001703719
      8        1          -0.008226072    0.008458016    0.000852610
      9        1          -0.001789614   -0.000725433    0.002549829
 -------------------------------------------------------------------
 Cartesian Forces:  Max     0.011838909 RMS     0.004449136

 GradGradGradGradGradGradGradGradGradGradGradGradGradGradGradGradGradGrad
 Berny optimization.
 Internal  Forces:  Max     0.010986687 RMS     0.003640190
 Search for a local minimum.
 Step number   1 out of a maximum of   43 on scan point     1 out of    10
 All quantities printed in internal units (Hartrees-Bohrs-Radians)
 Mixed Optimization -- RFO/linear search
 Second derivative matrix not updated -- first step.
     Eigenvalues ---    0.00483   0.04097   0.05629   0.05661   0.05829
     Eigenvalues ---    0.11772   0.12377   0.16000   0.16000   0.16000
     Eigenvalues ---    0.16000   0.22021   0.30233   0.34983   0.35118
     Eigenvalues ---    0.35277   0.35468   0.35743   0.45003   0.58332
     Eigenvalues --- 1000.000001000.000001000.000001000.000001000.00000
     Eigenvalues --- 1000.000001000.000001000.000001000.000001000.00000
     Eigenvalues --- 1000.000001000.000001000.00000
 RFO step:  Lambda=-4.84389579D-03 EMin= 4.83030953D-03
 Linear search not attempted -- first point.
 Iteration  1 RMS(Cart)=  0.05306492 RMS(Int)=  0.00198694
 Iteration  2 RMS(Cart)=  0.00187750 RMS(Int)=  0.00104348
 Iteration  3 RMS(Cart)=  0.00000121 RMS(Int)=  0.00104348
 Iteration  4 RMS(Cart)=  0.00000000 RMS(Int)=  0.00104348
 Iteration  1 RMS(Cart)=  0.00006932 RMS(Int)=  0.00005990
 Iteration  2 RMS(Cart)=  0.00003393 RMS(Int)=  0.00006697
 Iteration  3 RMS(Cart)=  0.00001661 RMS(Int)=  0.00007468
 Iteration  4 RMS(Cart)=  0.00000813 RMS(Int)=  0.00007918
 Iteration  5 RMS(Cart)=  0.00000398 RMS(Int)=  0.00008152
 Iteration  6 RMS(Cart)=  0.00000195 RMS(Int)=  0.00008269
 Iteration  7 RMS(Cart)=  0.00000095 RMS(Int)=  0.00008327
 Variable       Old X    -DE/DX   Delta X   Delta X   Delta X     New X
                                 (Linear)    (Quad)   (Total)
    R1        2.87501  -0.00078   0.00000  -0.00253  -0.00253   2.87247
    R2        2.05228   0.00028   0.00000   0.00078   0.00078   2.05305
    R3        2.05484  -0.00180   0.00000  -0.00505  -0.00505   2.04979
    R4        2.04922   0.00096   0.00000   0.00268   0.00268   2.05190
    R5        2.65272   0.00333   0.00000   0.00732   0.00732   2.66004
    R6        2.05702  -0.00433   0.00000  -0.01220  -0.01220   2.04482
    R7        2.04485   0.00465   0.00000   0.01285   0.01285   2.05770
    R8        1.78985  -0.00285   0.00000  -0.00484  -0.00484   1.78501
    A1        1.93491  -0.00052   0.00000  -0.00257  -0.00257   1.93234
    A2        1.93775  -0.00171   0.00000  -0.00978  -0.00977   1.92798
    A3        1.92679   0.00149   0.00000   0.00789   0.00790   1.93470
    A4        1.88058   0.00144   0.00000   0.01098   0.01097   1.89156
    A5        1.89572  -0.00065   0.00000  -0.00506  -0.00505   1.89067
    A6        1.88649  -0.00004   0.00000  -0.00134  -0.00132   1.88517
    A7        1.96329  -0.00340   0.00000  -0.01433  -0.01647   1.94682
    A8        1.92482   0.00423   0.00000  -0.00528  -0.00799   1.91683
    A9        1.92343  -0.00401   0.00000  -0.00136  -0.00267   1.92075
   A10        1.93062  -0.00677   0.00000  -0.09158  -0.09255   1.83807
   A11        1.84594   0.01099   0.00000   0.12378   0.12382   1.96976
   A12        1.87212  -0.00080   0.00000  -0.00611  -0.00432   1.86780
   A13        1.90898  -0.00068   0.00000  -0.00412  -0.00412   1.90485
    D1       -3.10051  -0.00564   0.00000  -0.10239  -0.10218   3.08049
    D2        1.01836   0.00248   0.00000   0.03126   0.03108   1.04944
    D3       -1.04532   0.00333   0.00000   0.04287   0.04286  -1.00246
    D4        1.09290  -0.00599   0.00000  -0.10806  -0.10786   0.98504
    D5       -1.07142   0.00213   0.00000   0.02559   0.02541  -1.04601
    D6       -3.13509   0.00298   0.00000   0.03721   0.03718  -3.09791
    D7       -0.99894  -0.00581   0.00000  -0.10521  -0.10500  -1.10394
    D8        3.11992   0.00230   0.00000   0.02844   0.02826  -3.13500
    D9        1.05625   0.00316   0.00000   0.04005   0.04004   1.09629
   D10        1.57080  -0.00003   0.00000   0.00000   0.00000   1.57079
   D11       -2.55128  -0.00207   0.00000  -0.08607  -0.08260  -2.63388
   D12       -0.52969  -0.00027   0.00000  -0.07002  -0.07253  -0.60222
         Item               Value     Threshold  Converged?
 Maximum Force            0.010987     0.000450     NO 
 RMS     Force            0.003697     0.000300     NO 
 Maximum Displacement     0.122713     0.001800     NO 
 RMS     Displacement     0.053155     0.001200     NO 
 Predicted change in Energy=-2.582133D-03
 GradGradGradGradGradGradGradGradGradGradGradGradGradGradGradGradGradGrad

                          Input orientation:                          
 ---------------------------------------------------------------------
 Center     Atomic      Atomic             Coordinates (Angstroms)
 Number     Number       Type             X           Y           Z
 ---------------------------------------------------------------------
      1          6           0       -1.203358   -0.232788   -0.030375
      2          6           0        0.085699    0.571946    0.005362
      3          8           0        1.217621   -0.261517   -0.068905
      4          1           0       -2.065611    0.417209    0.089438
      5          1           0       -1.214618   -0.966580    0.768374
      6          1           0       -1.302822   -0.761568   -0.973508
      7          1           0        0.171161    1.086167    0.953599
      8          1           0        0.070866    1.335367   -0.770942
      9          1           0        1.453224   -0.383835   -0.975422
 ---------------------------------------------------------------------
                    Distance matrix (angstroms):
                    1          2          3          4          5
     1  C    0.000000
     2  C    1.520046   0.000000
     3  O    2.421456   1.407631   0.000000
     4  H    1.086430   2.158505   3.356390   0.000000
     5  H    1.084702   2.154083   2.667196   1.760686   0.000000
     6  H    1.085818   2.159731   2.724149   1.761026   1.756122
     7  H    2.144096   1.082072   1.989182   2.489463   2.483639
     8  H    2.152021   1.088889   2.087569   2.479476   3.053019
     9  H    2.823713   1.935350   0.944586   3.762684   3.240030
                    6          7          8          9
     6  H    0.000000
     7  H    3.049671   0.000000
     8  H    2.514993   1.745337   0.000000
     9  H    2.781812   2.743303   2.215487   0.000000
 Symmetry turned off by external request.
 Stoichiometry    C2H6O
 Framework group  C1[X(C2H6O)]
 Deg. of freedom    21
 Full point group                 C1      NOp   1
 Rotational constants (GHZ):     35.0421571      9.2698553      8.2432525
 Standard basis: 6-31G(d) (6D, 7F)
 Integral buffers will be    131072 words long.
 Raffenetti 1 integral format.
 Two-electron integral symmetry is turned off.
    57 basis functions,   108 primitive gaussians,    57 cartesian basis functions
    13 alpha electrons       13 beta electrons
       nuclear repulsion energy        82.1957865451 Hartrees.
 NAtoms=    9 NActive=    9 NUniq=    9 SFac= 7.50D-01 NAtFMM=   80 NAOKFM=F Big=F
 One-electron integrals computed using PRISM.
 NBasis=    57 RedAO= T  NBF=    57
 NBsUse=    57 1.00D-06 NBFU=    57
 Initial guess read from the read-write file.
 B after Tr=     0.000000    0.000000    0.000000
         Rot=    1.000000    0.000000    0.000000    0.000000 Ang=   0.00 deg.
 Harris functional with IExCor=  205 diagonalized for initial guess.
 ExpMin= 1.61D-01 ExpMax= 5.48D+03 ExpMxC= 8.25D+02 IAcc=1 IRadAn=         1 AccDes= 0.00D+00
 HarFok:  IExCor=  205 AccDes= 0.00D+00 IRadAn=         1 IDoV= 1
 ScaDFX=  1.000000  1.000000  1.000000  1.000000
 FoFCou: FMM=F IPFlag=           0 FMFlag=      100000 FMFlg1=           0
         NFxFlg=           0 DoJE=T BraDBF=F KetDBF=T FulRan=T
         Omega=  0.000000  0.000000  1.000000  0.000000  0.000000 ICntrl=     500 IOpCl=  0
         NMat0=    1 NMatS0=    1 NMatT0=    0 NMatD0=    1 NMtDS0=    0 NMtDT0=    0
         I1Cent=           4 NGrid=           0.
 Symmetry not used in FoFCou.
 Requested convergence on RMS density matrix=1.00D-08 within 128 cycles.
 Requested convergence on MAX density matrix=1.00D-06.
 Requested convergence on             energy=1.00D-06.
 No special actions if energy rises.
 Keep R1 ints in memory in canonical form, NReq=2215640.
 SCF Done:  E(RHF) =  -154.074472619     A.U. after   11 cycles
             Convg  =    0.3969D-08             -V/T =  2.0012
 Calling FoFJK, ICntrl=      2127 FMM=F ISym2X=0 I1Cent= 0 IOpClX= 0 NMat=1 NMatS=1 NMatT=0.
 -------------------------------------------------------------------
 Center     Atomic                   Forces (Hartrees/Bohr)
 Number     Number              X              Y              Z
 -------------------------------------------------------------------
      1        6          -0.000791189   -0.000022091   -0.000490555
      2        6          -0.001706313   -0.001969313    0.008143489
      3        8          -0.000469636    0.005377405   -0.004344637
      4        1          -0.000258742   -0.000125450   -0.000523704
      5        1           0.000624083    0.000295802   -0.000289608
      6        1          -0.000565630   -0.000138006   -0.000418277
      7        1          -0.001630317    0.001733563    0.000312702
      8        1           0.004126198   -0.002341768   -0.000799927
      9        1           0.000671546   -0.002810143   -0.001589482
 -------------------------------------------------------------------
 Cartesian Forces:  Max     0.008143489 RMS     0.002458563

 GradGradGradGradGradGradGradGradGradGradGradGradGradGradGradGradGradGrad
 Berny optimization.
 Using GEDIIS/GDIIS optimizer.
 Internal  Forces:  Max     0.004794867 RMS     0.001568982
 Search for a local minimum.
 Step number   2 out of a maximum of   43 on scan point     1 out of    10
 All quantities printed in internal units (Hartrees-Bohrs-Radians)
 Mixed Optimization -- RFO/linear search
 Update second derivatives using D2CorX and points    1    2
 DE= -1.56D-03 DEPred=-2.58D-03 R= 6.05D-01
 SS=  1.41D+00  RLast= 2.78D-01 DXNew= 5.0454D-01 8.3482D-01
 Trust test= 6.05D-01 RLast= 2.78D-01 DXMaxT set to 5.05D-01
 Use linear search instead of GDIIS.
     Eigenvalues ---    0.00484   0.04884   0.05638   0.05679   0.05916
     Eigenvalues ---    0.11594   0.14088   0.15926   0.16000   0.16000
     Eigenvalues ---    0.16787   0.22109   0.30269   0.34980   0.35106
     Eigenvalues ---    0.35276   0.35451   0.35824   0.45065   0.58547
     Eigenvalues --- 1000.000001000.000001000.000001000.000001000.00000
     Eigenvalues --- 1000.000001000.000001000.000001000.000001000.00000
     Eigenvalues --- 1000.000001000.000001000.00000
 RFO step:  Lambda=-6.94497361D-05 EMin= 4.83563641D-03
 Quartic linear search produced a step of -0.26056.
 Iteration  1 RMS(Cart)=  0.01153714 RMS(Int)=  0.00024745
 Iteration  2 RMS(Cart)=  0.00011264 RMS(Int)=  0.00022187
 Iteration  3 RMS(Cart)=  0.00000001 RMS(Int)=  0.00022187
 Iteration  1 RMS(Cart)=  0.00000945 RMS(Int)=  0.00000836
 Iteration  2 RMS(Cart)=  0.00000464 RMS(Int)=  0.00000935
 Iteration  3 RMS(Cart)=  0.00000228 RMS(Int)=  0.00001043
 Iteration  4 RMS(Cart)=  0.00000112 RMS(Int)=  0.00001106
 Iteration  5 RMS(Cart)=  0.00000055 RMS(Int)=  0.00001139
 Variable       Old X    -DE/DX   Delta X   Delta X   Delta X     New X
                                 (Linear)    (Quad)   (Total)
    R1        2.87247   0.00088   0.00066   0.00144   0.00210   2.87458
    R2        2.05305   0.00007  -0.00020   0.00037   0.00016   2.05322
    R3        2.04979  -0.00042   0.00132  -0.00227  -0.00096   2.04883
    R4        2.05190   0.00048  -0.00070   0.00174   0.00104   2.05294
    R5        2.66004  -0.00104  -0.00191   0.00029  -0.00162   2.65842
    R6        2.04482   0.00097   0.00318  -0.00130   0.00187   2.04669
    R7        2.05770  -0.00113  -0.00335   0.00120  -0.00215   2.05555
    R8        1.78501   0.00206   0.00126   0.00128   0.00254   1.78755
    A1        1.93234   0.00046   0.00067   0.00164   0.00231   1.93465
    A2        1.92798  -0.00092   0.00255  -0.00670  -0.00416   1.92382
    A3        1.93470   0.00059  -0.00206   0.00447   0.00241   1.93710
    A4        1.89156   0.00037  -0.00286   0.00563   0.00277   1.89433
    A5        1.89067  -0.00062   0.00132  -0.00472  -0.00341   1.88726
    A6        1.88517   0.00011   0.00034  -0.00028   0.00007   1.88523
    A7        1.94682   0.00170   0.00429   0.00139   0.00615   1.95298
    A8        1.91683  -0.00056   0.00208   0.00000   0.00261   1.91944
    A9        1.92075   0.00168   0.00070   0.00702   0.00803   1.92878
   A10        1.83807   0.00194   0.02411  -0.00500   0.01931   1.85738
   A11        1.96976  -0.00479  -0.03226  -0.00340  -0.03564   1.93412
   A12        1.86780   0.00000   0.00113  -0.00063   0.00009   1.86789
   A13        1.90485   0.00305   0.00107   0.01294   0.01401   1.91887
    D1        3.08049   0.00233   0.02663  -0.00798   0.01861   3.09910
    D2        1.04944  -0.00073  -0.00810  -0.00267  -0.01073   1.03871
    D3       -1.00246  -0.00140  -0.01117  -0.00609  -0.01727  -1.01973
    D4        0.98504   0.00217   0.02810  -0.01171   0.01636   1.00140
    D5       -1.04601  -0.00089  -0.00662  -0.00639  -0.01297  -1.05898
    D6       -3.09791  -0.00156  -0.00969  -0.00982  -0.01952  -3.11743
    D7       -1.10394   0.00225   0.02736  -0.00989   0.01744  -1.08651
    D8       -3.13500  -0.00081  -0.00736  -0.00457  -0.01190   3.13629
    D9        1.09629  -0.00148  -0.01043  -0.00800  -0.01844   1.07785
   D10        1.57079  -0.00159   0.00000   0.00000   0.00001   1.57080
   D11       -2.63388  -0.00019   0.02152  -0.00228   0.01854  -2.61534
   D12       -0.60222  -0.00147   0.01890  -0.00781   0.01166  -0.59056
         Item               Value     Threshold  Converged?
 Maximum Force            0.004845     0.000450     NO 
 RMS     Force            0.001544     0.000300     NO 
 Maximum Displacement     0.036882     0.001800     NO 
 RMS     Displacement     0.011550     0.001200     NO 
 Predicted change in Energy=-2.494264D-04
 GradGradGradGradGradGradGradGradGradGradGradGradGradGradGradGradGradGrad

                          Input orientation:                          
 ---------------------------------------------------------------------
 Center     Atomic      Atomic             Coordinates (Angstroms)
 Number     Number       Type             X           Y           Z
 ---------------------------------------------------------------------
      1          6           0       -1.207791   -0.233549   -0.027590
      2          6           0        0.084101    0.568467    0.013798
      3          8           0        1.218298   -0.258677   -0.078107
      4          1           0       -2.070520    0.416833    0.087388
      5          1           0       -1.219752   -0.966465    0.771267
      6          1           0       -1.306962   -0.763127   -0.970942
      7          1           0        0.163656    1.093367    0.957821
      8          1           0        0.090383    1.321736   -0.770899
      9          1           0        1.460747   -0.374185   -0.985116
 ---------------------------------------------------------------------
                    Distance matrix (angstroms):
                    1          2          3          4          5
     1  C    0.000000
     2  C    1.521160   0.000000
     3  O    2.426745   1.406775   0.000000
     4  H    1.086516   2.161203   3.361551   0.000000
     5  H    1.084197   2.151699   2.677030   1.762104   0.000000
     6  H    1.086370   2.162848   2.725538   1.759372   1.756201
     7  H    2.147698   1.083064   2.003357   2.491363   2.488278
     8  H    2.157933   1.087751   2.061519   2.494996   3.054602
     9  H    2.838614   1.944627   0.945932   3.774363   3.258949
                    6          7          8          9
     6  H    0.000000
     7  H    3.054408   0.000000
     8  H    2.517786   1.745277   0.000000
     9  H    2.794940   2.758832   2.190876   0.000000
 Symmetry turned off by external request.
 Stoichiometry    C2H6O
 Framework group  C1[X(C2H6O)]
 Deg. of freedom    21
 Full point group                 C1      NOp   1
 Rotational constants (GHZ):     35.2083401      9.2288068      8.2186133
 Standard basis: 6-31G(d) (6D, 7F)
 Integral buffers will be    131072 words long.
 Raffenetti 1 integral format.
 Two-electron integral symmetry is turned off.
    57 basis functions,   108 primitive gaussians,    57 cartesian basis functions
    13 alpha electrons       13 beta electrons
       nuclear repulsion energy        82.1446602965 Hartrees.
 NAtoms=    9 NActive=    9 NUniq=    9 SFac= 7.50D-01 NAtFMM=   80 NAOKFM=F Big=F
 One-electron integrals computed using PRISM.
 NBasis=    57 RedAO= T  NBF=    57
 NBsUse=    57 1.00D-06 NBFU=    57
 Initial guess read from the read-write file.
 B after Tr=     0.000000    0.000000    0.000000
         Rot=    1.000000    0.000000    0.000000    0.000000 Ang=   0.00 deg.
 Harris functional with IExCor=  205 diagonalized for initial guess.
 ExpMin= 1.61D-01 ExpMax= 5.48D+03 ExpMxC= 8.25D+02 IAcc=1 IRadAn=         1 AccDes= 0.00D+00
 HarFok:  IExCor=  205 AccDes= 0.00D+00 IRadAn=         1 IDoV= 1
 ScaDFX=  1.000000  1.000000  1.000000  1.000000
 FoFCou: FMM=F IPFlag=           0 FMFlag=      100000 FMFlg1=           0
         NFxFlg=           0 DoJE=T BraDBF=F KetDBF=T FulRan=T
         Omega=  0.000000  0.000000  1.000000  0.000000  0.000000 ICntrl=     500 IOpCl=  0
         NMat0=    1 NMatS0=    1 NMatT0=    0 NMatD0=    1 NMtDS0=    0 NMtDT0=    0
         I1Cent=           4 NGrid=           0.
 Symmetry not used in FoFCou.
 Requested convergence on RMS density matrix=1.00D-08 within 128 cycles.
 Requested convergence on MAX density matrix=1.00D-06.
 Requested convergence on             energy=1.00D-06.
 No special actions if energy rises.
 Keep R1 ints in memory in canonical form, NReq=2215640.
 SCF Done:  E(RHF) =  -154.074724043     A.U. after   10 cycles
             Convg  =    0.3050D-08             -V/T =  2.0012
 Calling FoFJK, ICntrl=      2127 FMM=F ISym2X=0 I1Cent= 0 IOpClX= 0 NMat=1 NMatS=1 NMatT=0.
 -------------------------------------------------------------------
 Center     Atomic                   Forces (Hartrees/Bohr)
 Number     Number              X              Y              Z
 -------------------------------------------------------------------
      1        6           0.000164218    0.000079949   -0.000988150
      2        6           0.000017609   -0.000473302    0.001118537
      3        8           0.000922462    0.001926080   -0.000120148
      4        1           0.000083900   -0.000013070   -0.000027926
      5        1           0.000146265   -0.000015883    0.000011024
      6        1          -0.000033983    0.000075006   -0.000030200
      7        1          -0.000116734   -0.000137132    0.000104190
      8        1           0.000191446   -0.000191418   -0.000020719
      9        1          -0.001375183   -0.001250229   -0.000046609
 -------------------------------------------------------------------
 Cartesian Forces:  Max     0.001926080 RMS     0.000628674

 GradGradGradGradGradGradGradGradGradGradGradGradGradGradGradGradGradGrad
 Berny optimization.
 Using GEDIIS/GDIIS optimizer.
 Internal  Forces:  Max     0.001444474 RMS     0.000408368
 Search for a local minimum.
 Step number   3 out of a maximum of   43 on scan point     1 out of    10
 All quantities printed in internal units (Hartrees-Bohrs-Radians)
 Mixed Optimization -- En-DIIS/RFO-DIIS
 Update second derivatives using D2CorX and points    1    2    3
 DE= -2.51D-04 DEPred=-2.49D-04 R= 1.01D+00
 SS=  1.41D+00  RLast= 6.97D-02 DXNew= 8.4853D-01 2.0917D-01
 Trust test= 1.01D+00 RLast= 6.97D-02 DXMaxT set to 5.05D-01
 Use linear search instead of GDIIS.
     Eigenvalues ---    0.00480   0.04908   0.05619   0.05689   0.05834
     Eigenvalues ---    0.11713   0.13346   0.15733   0.15999   0.16000
     Eigenvalues ---    0.17716   0.22518   0.30495   0.34977   0.35116
     Eigenvalues ---    0.35284   0.35458   0.35776   0.44924   0.58725
     Eigenvalues --- 1000.000001000.000001000.000001000.000001000.00000
     Eigenvalues --- 1000.000001000.000001000.000001000.000001000.00000
     Eigenvalues --- 1000.000001000.000001000.00000
 RFO step:  Lambda=-7.99807782D-06 EMin= 4.80221057D-03
 Quartic linear search produced a step of -0.00604.
 Iteration  1 RMS(Cart)=  0.00317247 RMS(Int)=  0.00000505
 Iteration  2 RMS(Cart)=  0.00000534 RMS(Int)=  0.00000043
 Iteration  3 RMS(Cart)=  0.00000000 RMS(Int)=  0.00000043
 Iteration  1 RMS(Cart)=  0.00000040 RMS(Int)=  0.00000036
 Variable       Old X    -DE/DX   Delta X   Delta X   Delta X     New X
                                 (Linear)    (Quad)   (Total)
    R1        2.87458  -0.00034  -0.00001  -0.00107  -0.00109   2.87349
    R2        2.05322  -0.00008   0.00000  -0.00021  -0.00021   2.05300
    R3        2.04883   0.00002   0.00001   0.00002   0.00002   2.04886
    R4        2.05294  -0.00001  -0.00001   0.00001   0.00000   2.05295
    R5        2.65842  -0.00075   0.00001  -0.00169  -0.00168   2.65674
    R6        2.04669   0.00002  -0.00001   0.00008   0.00007   2.04676
    R7        2.05555  -0.00012   0.00001  -0.00036  -0.00035   2.05520
    R8        1.78755  -0.00016  -0.00002  -0.00020  -0.00022   1.78734
    A1        1.93465  -0.00003  -0.00001  -0.00010  -0.00011   1.93454
    A2        1.92382  -0.00017   0.00003  -0.00110  -0.00108   1.92274
    A3        1.93710   0.00002  -0.00001   0.00013   0.00012   1.93722
    A4        1.89433   0.00011  -0.00002   0.00090   0.00088   1.89521
    A5        1.88726  -0.00001   0.00002  -0.00026  -0.00024   1.88702
    A6        1.88523   0.00008   0.00000   0.00047   0.00047   1.88570
    A7        1.95298  -0.00033  -0.00004  -0.00164  -0.00168   1.95130
    A8        1.91944   0.00053  -0.00002  -0.00111  -0.00113   1.91831
    A9        1.92878  -0.00037  -0.00005   0.00203   0.00198   1.93077
   A10        1.85738   0.00015  -0.00012   0.00051   0.00039   1.85777
   A11        1.93412   0.00000   0.00022  -0.00152  -0.00130   1.93282
   A12        1.86789   0.00007   0.00000   0.00181   0.00180   1.86969
   A13        1.91887  -0.00060  -0.00008  -0.00337  -0.00345   1.91541
    D1        3.09910   0.00026  -0.00011  -0.00551  -0.00563   3.09347
    D2        1.03871  -0.00006   0.00006  -0.00440  -0.00433   1.03438
    D3       -1.01973  -0.00025   0.00010  -0.00717  -0.00707  -1.02680
    D4        1.00140   0.00024  -0.00010  -0.00585  -0.00595   0.99545
    D5       -1.05898  -0.00008   0.00008  -0.00474  -0.00466  -1.06364
    D6       -3.11743  -0.00026   0.00012  -0.00751  -0.00740  -3.12482
    D7       -1.08651   0.00024  -0.00011  -0.00581  -0.00592  -1.09242
    D8        3.13629  -0.00008   0.00007  -0.00469  -0.00462   3.13167
    D9        1.07785  -0.00026   0.00011  -0.00747  -0.00736   1.07049
   D10        1.57080  -0.00144   0.00000   0.00000   0.00000   1.57080
   D11       -2.61534  -0.00089  -0.00011  -0.00198  -0.00209  -2.61744
   D12       -0.59056  -0.00072  -0.00007  -0.00033  -0.00040  -0.59096
         Item               Value     Threshold  Converged?
 Maximum Force            0.000751     0.000450     NO 
 RMS     Force            0.000210     0.000300     YES
 Maximum Displacement     0.007765     0.001800     NO 
 RMS     Displacement     0.003173     0.001200     NO 
 Predicted change in Energy=-4.009637D-06
 GradGradGradGradGradGradGradGradGradGradGradGradGradGradGradGradGradGrad

                          Input orientation:                          
 ---------------------------------------------------------------------
 Center     Atomic      Atomic             Coordinates (Angstroms)
 Number     Number       Type             X           Y           Z
 ---------------------------------------------------------------------
      1          6           0       -1.206978   -0.233455   -0.027822
      2          6           0        0.083870    0.569172    0.013190
      3          8           0        1.216578   -0.258821   -0.075786
      4          1           0       -2.069837    0.415967    0.090489
      5          1           0       -1.215643   -0.968326    0.769296
      6          1           0       -1.307778   -0.760466   -0.972440
      7          1           0        0.161640    1.094681    0.957065
      8          1           0        0.093087    1.320309   -0.773261
      9          1           0        1.457222   -0.374660   -0.983113
 ---------------------------------------------------------------------
                    Distance matrix (angstroms):
                    1          2          3          4          5
     1  C    0.000000
     2  C    1.520585   0.000000
     3  O    2.424163   1.405887   0.000000
     4  H    1.086403   2.160532   3.359094   0.000000
     5  H    1.084209   2.150426   2.670816   1.762582   0.000000
     6  H    1.086373   2.162427   2.725438   1.759133   1.756513
     7  H    2.146406   1.083100   2.002909   2.488191   2.487602
     8  H    2.158710   1.087565   2.059699   2.498427   3.054523
     9  H    2.833810   1.941529   0.945817   3.770658   3.250782
                    6          7          8          9
     6  H    0.000000
     7  H    3.053481   0.000000
     8  H    2.516291   1.746321   0.000000
     9  H    2.791807   2.757133   2.185823   0.000000
 Symmetry turned off by external request.
 Stoichiometry    C2H6O
 Framework group  C1[X(C2H6O)]
 Deg. of freedom    21
 Full point group                 C1      NOp   1
 Rotational constants (GHZ):     35.1879452      9.2473846      8.2333449
 Standard basis: 6-31G(d) (6D, 7F)
 Integral buffers will be    131072 words long.
 Raffenetti 1 integral format.
 Two-electron integral symmetry is turned off.
    57 basis functions,   108 primitive gaussians,    57 cartesian basis functions
    13 alpha electrons       13 beta electrons
       nuclear repulsion energy        82.1879670062 Hartrees.
 NAtoms=    9 NActive=    9 NUniq=    9 SFac= 7.50D-01 NAtFMM=   80 NAOKFM=F Big=F
 One-electron integrals computed using PRISM.
 NBasis=    57 RedAO= T  NBF=    57
 NBsUse=    57 1.00D-06 NBFU=    57
 Initial guess read from the read-write file.
 B after Tr=     0.000000    0.000000    0.000000
         Rot=    1.000000    0.000000    0.000000    0.000000 Ang=   0.00 deg.
 Requested convergence on RMS density matrix=1.00D-08 within 128 cycles.
 Requested convergence on MAX density matrix=1.00D-06.
 Requested convergence on             energy=1.00D-06.
 No special actions if energy rises.
 Keep R1 ints in memory in canonical form, NReq=2215640.
 SCF Done:  E(RHF) =  -154.074727483     A.U. after    8 cycles
             Convg  =    0.6582D-08             -V/T =  2.0012
 Calling FoFJK, ICntrl=      2127 FMM=F ISym2X=0 I1Cent= 0 IOpClX= 0 NMat=1 NMatS=1 NMatT=0.
 -------------------------------------------------------------------
 Center     Atomic                   Forces (Hartrees/Bohr)
 Number     Number              X              Y              Z
 -------------------------------------------------------------------
      1        6          -0.000144361    0.000164067   -0.001174710
      2        6          -0.000185444   -0.000425280    0.001613978
      3        8           0.001493468    0.001719509   -0.000399317
      4        1          -0.000050934   -0.000041503    0.000011734
      5        1           0.000055759    0.000021953   -0.000007964
      6        1          -0.000038041   -0.000005437   -0.000005692
      7        1          -0.000058132    0.000053719   -0.000004406
      8        1          -0.000068839    0.000036288    0.000046002
      9        1          -0.001003477   -0.001523317   -0.000079623
 -------------------------------------------------------------------
 Cartesian Forces:  Max     0.001719509 RMS     0.000692616

 GradGradGradGradGradGradGradGradGradGradGradGradGradGradGradGradGradGrad
 Berny optimization.
 Using GEDIIS/GDIIS optimizer.
 Internal  Forces:  Max     0.001552380 RMS     0.000386260
 Search for a local minimum.
 Step number   4 out of a maximum of   43 on scan point     1 out of    10
 All quantities printed in internal units (Hartrees-Bohrs-Radians)
 Mixed Optimization -- En-DIIS/RFO-DIIS
 Swaping is turned off.
 Update second derivatives using D2CorX and points    1    2    3    4
 DE= -3.44D-06 DEPred=-4.01D-06 R= 8.58D-01
 SS=  1.41D+00  RLast= 1.89D-02 DXNew= 8.4853D-01 5.6828D-02
 Trust test= 8.58D-01 RLast= 1.89D-02 DXMaxT set to 5.05D-01
     Eigenvalues ---    0.00416   0.04863   0.05621   0.05690   0.06262
     Eigenvalues ---    0.11491   0.13815   0.15317   0.15994   0.16056
     Eigenvalues ---    0.18606   0.22916   0.31181   0.34952   0.35117
     Eigenvalues ---    0.35310   0.35463   0.35711   0.51170   0.58815
     Eigenvalues --- 1000.000001000.000001000.000001000.000001000.00000
     Eigenvalues --- 1000.000001000.000001000.000001000.000001000.00000
     Eigenvalues --- 1000.000001000.000001000.00000
 En-DIIS/RFO-DIIS IScMMF=        0 using points:     4    3
 RFO step:  Lambda=-4.93145152D-07.
 DIIS coeffs:      0.87518      0.12482
 Iteration  1 RMS(Cart)=  0.00128068 RMS(Int)=  0.00000104
 Iteration  2 RMS(Cart)=  0.00000102 RMS(Int)=  0.00000023
 Iteration  3 RMS(Cart)=  0.00000000 RMS(Int)=  0.00000023
 Iteration  1 RMS(Cart)=  0.00000009 RMS(Int)=  0.00000008
 Variable       Old X    -DE/DX   Delta X   Delta X   Delta X     New X
                                  (DIIS)     (GDIIS)  (Total)
    R1        2.87349   0.00011   0.00014   0.00008   0.00022   2.87371
    R2        2.05300   0.00002   0.00003   0.00000   0.00002   2.05303
    R3        2.04886  -0.00002   0.00000  -0.00005  -0.00005   2.04880
    R4        2.05295   0.00001   0.00000   0.00003   0.00003   2.05298
    R5        2.65674   0.00031   0.00021   0.00024   0.00045   2.65719
    R6        2.04676   0.00002  -0.00001   0.00006   0.00005   2.04682
    R7        2.05520  -0.00001   0.00004  -0.00010  -0.00005   2.05515
    R8        1.78734   0.00001   0.00003  -0.00003  -0.00001   1.78733
    A1        1.93454   0.00010   0.00001   0.00060   0.00061   1.93514
    A2        1.92274  -0.00011   0.00013  -0.00093  -0.00079   1.92195
    A3        1.93722   0.00005  -0.00001   0.00033   0.00031   1.93753
    A4        1.89521   0.00000  -0.00011   0.00013   0.00002   1.89523
    A5        1.88702  -0.00005   0.00003  -0.00016  -0.00013   1.88689
    A6        1.88570   0.00001  -0.00006   0.00004  -0.00001   1.88569
    A7        1.95130   0.00003   0.00021   0.00000   0.00021   1.95151
    A8        1.91831   0.00062   0.00014  -0.00069  -0.00055   1.91776
    A9        1.93077  -0.00069  -0.00025   0.00012  -0.00013   1.93064
   A10        1.85777   0.00000  -0.00005   0.00032   0.00027   1.85804
   A11        1.93282   0.00009   0.00016   0.00034   0.00050   1.93332
   A12        1.86969  -0.00002  -0.00023  -0.00010  -0.00033   1.86937
   A13        1.91541   0.00017   0.00043   0.00022   0.00065   1.91607
    D1        3.09347   0.00024   0.00070  -0.00334  -0.00263   3.09084
    D2        1.03438  -0.00018   0.00054  -0.00329  -0.00275   1.03163
    D3       -1.02680  -0.00013   0.00088  -0.00281  -0.00193  -1.02872
    D4        0.99545   0.00025   0.00074  -0.00327  -0.00253   0.99292
    D5       -1.06364  -0.00018   0.00058  -0.00323  -0.00265  -1.06629
    D6       -3.12482  -0.00012   0.00092  -0.00274  -0.00182  -3.12664
    D7       -1.09242   0.00027   0.00074  -0.00293  -0.00219  -1.09461
    D8        3.13167  -0.00015   0.00058  -0.00289  -0.00231   3.12936
    D9        1.07049  -0.00010   0.00092  -0.00240  -0.00148   1.06901
   D10        1.57080  -0.00155   0.00000   0.00000   0.00000   1.57080
   D11       -2.61744  -0.00077   0.00026  -0.00064  -0.00038  -2.61781
   D12       -0.59096  -0.00074   0.00005  -0.00040  -0.00035  -0.59132
         Item               Value     Threshold  Converged?
 Maximum Force            0.000310     0.000450     YES
 RMS     Force            0.000077     0.000300     YES
 Maximum Displacement     0.003185     0.001800     NO 
 RMS     Displacement     0.001281     0.001200     NO 
 Predicted change in Energy=-4.297282D-07
 GradGradGradGradGradGradGradGradGradGradGradGradGradGradGradGradGradGrad

                          Input orientation:                          
 ---------------------------------------------------------------------
 Center     Atomic      Atomic             Coordinates (Angstroms)
 Number     Number       Type             X           Y           Z
 ---------------------------------------------------------------------
      1          6           0       -1.207163   -0.233229   -0.027998
      2          6           0        0.083901    0.569278    0.012817
      3          8           0        1.216869   -0.258864   -0.075198
      4          1           0       -2.070243    0.415578    0.092175
      5          1           0       -1.214302   -0.968930    0.768331
      6          1           0       -1.309120   -0.759307   -0.973031
      7          1           0        0.160892    1.095351    0.956473
      8          1           0        0.093043    1.320241   -0.773761
      9          1           0        1.458283   -0.375718   -0.982188
 ---------------------------------------------------------------------
                    Distance matrix (angstroms):
                    1          2          3          4          5
     1  C    0.000000
     2  C    1.520700   0.000000
     3  O    2.424627   1.406123   0.000000
     4  H    1.086415   2.161078   3.359761   0.000000
     5  H    1.084180   2.149934   2.669518   1.762579   0.000000
     6  H    1.086389   2.162763   2.727117   1.759070   1.756494
     7  H    2.146132   1.083128   2.003329   2.487381   2.487531
     8  H    2.158695   1.087536   2.060230   2.499613   3.054095
     9  H    2.834675   1.942158   0.945815   3.772386   3.249450
                    6          7          8          9
     6  H    0.000000
     7  H    3.053469   0.000000
     8  H    2.516006   1.746107   0.000000
     9  H    2.793875   2.757838   2.187144   0.000000
 Symmetry turned off by external request.
 Stoichiometry    C2H6O
 Framework group  C1[X(C2H6O)]
 Deg. of freedom    21
 Full point group                 C1      NOp   1
 Rotational constants (GHZ):     35.1891957      9.2441497      8.2306173
 Standard basis: 6-31G(d) (6D, 7F)
 Integral buffers will be    131072 words long.
 Raffenetti 1 integral format.
 Two-electron integral symmetry is turned off.
    57 basis functions,   108 primitive gaussians,    57 cartesian basis functions
    13 alpha electrons       13 beta electrons
       nuclear repulsion energy        82.1793970289 Hartrees.
 NAtoms=    9 NActive=    9 NUniq=    9 SFac= 7.50D-01 NAtFMM=   80 NAOKFM=F Big=F
 One-electron integrals computed using PRISM.
 NBasis=    57 RedAO= T  NBF=    57
 NBsUse=    57 1.00D-06 NBFU=    57
 Initial guess read from the read-write file.
 B after Tr=     0.000000    0.000000    0.000000
         Rot=    1.000000    0.000000    0.000000    0.000000 Ang=   0.00 deg.
 Requested convergence on RMS density matrix=1.00D-08 within 128 cycles.
 Requested convergence on MAX density matrix=1.00D-06.
 Requested convergence on             energy=1.00D-06.
 No special actions if energy rises.
 Keep R1 ints in memory in canonical form, NReq=2215640.
 SCF Done:  E(RHF) =  -154.074727946     A.U. after    7 cycles
             Convg  =    0.9717D-08             -V/T =  2.0012
 Calling FoFJK, ICntrl=      2127 FMM=F ISym2X=0 I1Cent= 0 IOpClX= 0 NMat=1 NMatS=1 NMatT=0.
 -------------------------------------------------------------------
 Center     Atomic                   Forces (Hartrees/Bohr)
 Number     Number              X              Y              Z
 -------------------------------------------------------------------
      1        6          -0.000041079    0.000065582   -0.001176155
      2        6          -0.000229911   -0.000435852    0.001596240
      3        8           0.001314380    0.001834424   -0.000319937
      4        1           0.000008879    0.000000191    0.000010759
      5        1          -0.000002046   -0.000007653    0.000003859
      6        1          -0.000015271   -0.000005442    0.000001111
      7        1           0.000026176    0.000005223   -0.000010077
      8        1           0.000006427    0.000011315   -0.000001450
      9        1          -0.001067556   -0.001467787   -0.000104350
 -------------------------------------------------------------------
 Cartesian Forces:  Max     0.001834424 RMS     0.000685341

 GradGradGradGradGradGradGradGradGradGradGradGradGradGradGradGradGradGrad
 Berny optimization.
 Using GEDIIS/GDIIS optimizer.
 Internal  Forces:  Max     0.001560225 RMS     0.000380895
 Search for a local minimum.
 Step number   5 out of a maximum of   43 on scan point     1 out of    10
 All quantities printed in internal units (Hartrees-Bohrs-Radians)
 Mixed Optimization -- En-DIIS/RFO-DIIS
 Swaping is turned off.
 Update second derivatives using D2CorX and points    1    2    3    4    5
 DE= -4.64D-07 DEPred=-4.30D-07 R= 1.08D+00
 Trust test= 1.08D+00 RLast= 7.08D-03 DXMaxT set to 5.05D-01
     Eigenvalues ---    0.00342   0.04833   0.05584   0.05717   0.06375
     Eigenvalues ---    0.12334   0.13926   0.15016   0.15996   0.16651
     Eigenvalues ---    0.18684   0.23116   0.30696   0.34962   0.35154
     Eigenvalues ---    0.35335   0.35459   0.35807   0.51146   0.58785
     Eigenvalues --- 1000.000001000.000001000.000001000.000001000.00000
     Eigenvalues --- 1000.000001000.000001000.000001000.000001000.00000
     Eigenvalues --- 1000.000001000.000001000.00000
 En-DIIS/RFO-DIIS IScMMF=        0 using points:     5    4    3
 RFO step:  Lambda=-1.66309041D-07.
 DIIS coeffs:      1.10137     -0.09133     -0.01004
 Iteration  1 RMS(Cart)=  0.00052862 RMS(Int)=  0.00000025
 Iteration  2 RMS(Cart)=  0.00000017 RMS(Int)=  0.00000019
 Iteration  1 RMS(Cart)=  0.00000007 RMS(Int)=  0.00000007
 Variable       Old X    -DE/DX   Delta X   Delta X   Delta X     New X
                                  (DIIS)     (GDIIS)  (Total)
    R1        2.87371   0.00005   0.00001   0.00016   0.00017   2.87387
    R2        2.05303  -0.00001   0.00000  -0.00002  -0.00002   2.05301
    R3        2.04880   0.00001  -0.00001   0.00002   0.00002   2.04882
    R4        2.05298   0.00000   0.00000   0.00001   0.00001   2.05299
    R5        2.65719   0.00001   0.00003   0.00000   0.00003   2.65722
    R6        2.04682   0.00000   0.00001  -0.00001  -0.00001   2.04681
    R7        2.05515   0.00001  -0.00001   0.00002   0.00002   2.05516
    R8        1.78733   0.00001   0.00000   0.00002   0.00002   1.78735
    A1        1.93514  -0.00001   0.00006  -0.00013  -0.00007   1.93507
    A2        1.92195   0.00000  -0.00009  -0.00001  -0.00010   1.92185
    A3        1.93753   0.00003   0.00003   0.00021   0.00025   1.93778
    A4        1.89523   0.00000   0.00001  -0.00006  -0.00005   1.89517
    A5        1.88689   0.00000  -0.00002   0.00001  -0.00001   1.88688
    A6        1.88569  -0.00001   0.00000  -0.00003  -0.00002   1.88566
    A7        1.95151  -0.00003   0.00000  -0.00003  -0.00003   1.95148
    A8        1.91776   0.00070  -0.00007   0.00022   0.00015   1.91792
    A9        1.93064  -0.00063   0.00001   0.00011   0.00012   1.93076
   A10        1.85804  -0.00003   0.00003  -0.00022  -0.00019   1.85785
   A11        1.93332   0.00004   0.00004  -0.00002   0.00002   1.93334
   A12        1.86937  -0.00002  -0.00002  -0.00007  -0.00008   1.86928
   A13        1.91607   0.00001   0.00003   0.00008   0.00011   1.91618
    D1        3.09084   0.00027  -0.00032  -0.00088  -0.00120   3.08964
    D2        1.03163  -0.00013  -0.00032  -0.00072  -0.00104   1.03059
    D3       -1.02872  -0.00016  -0.00027  -0.00084  -0.00111  -1.02983
    D4        0.99292   0.00028  -0.00032  -0.00071  -0.00103   0.99190
    D5       -1.06629  -0.00012  -0.00031  -0.00055  -0.00087  -1.06716
    D6       -3.12664  -0.00015  -0.00026  -0.00068  -0.00093  -3.12757
    D7       -1.09461   0.00027  -0.00028  -0.00081  -0.00109  -1.09571
    D8        3.12936  -0.00013  -0.00028  -0.00065  -0.00094   3.12843
    D9        1.06901  -0.00016  -0.00022  -0.00078  -0.00100   1.06801
   D10        1.57080  -0.00156   0.00000   0.00000   0.00000   1.57080
   D11       -2.61781  -0.00074  -0.00006   0.00011   0.00005  -2.61776
   D12       -0.59132  -0.00075  -0.00004  -0.00011  -0.00015  -0.59147
         Item               Value     Threshold  Converged?
 Maximum Force            0.000045     0.000450     YES
 RMS     Force            0.000013     0.000300     YES
 Maximum Displacement     0.001393     0.001800     YES
 RMS     Displacement     0.000529     0.001200     YES
 Predicted change in Energy=-3.445130D-08
 Optimization completed.
    -- Stationary point found.
                           ----------------------------
                           !   Optimized Parameters   !
                           ! (Angstroms and Degrees)  !
 --------------------------                            --------------------------
 ! Name  Definition              Value          Derivative Info.                !
 --------------------------------------------------------------------------------
 ! R1    R(1,2)                  1.5207         -DE/DX =    0.0                 !
 ! R2    R(1,4)                  1.0864         -DE/DX =    0.0                 !
 ! R3    R(1,5)                  1.0842         -DE/DX =    0.0                 !
 ! R4    R(1,6)                  1.0864         -DE/DX =    0.0                 !
 ! R5    R(2,3)                  1.4061         -DE/DX =    0.0                 !
 ! R6    R(2,7)                  1.0831         -DE/DX =    0.0                 !
 ! R7    R(2,8)                  1.0875         -DE/DX =    0.0                 !
 ! R8    R(3,9)                  0.9458         -DE/DX =    0.0                 !
 ! A1    A(2,1,4)              110.8756         -DE/DX =    0.0                 !
 ! A2    A(2,1,5)              110.1194         -DE/DX =    0.0                 !
 ! A3    A(2,1,6)              111.0125         -DE/DX =    0.0                 !
 ! A4    A(4,1,5)              108.5886         -DE/DX =    0.0                 !
 ! A5    A(4,1,6)              108.1108         -DE/DX =    0.0                 !
 ! A6    A(5,1,6)              108.0419         -DE/DX =    0.0                 !
 ! A7    A(1,2,3)              111.8133         -DE/DX =    0.0                 !
 ! A8    A(1,2,7)              109.8796         -DE/DX =    0.0007              !
 ! A9    A(1,2,8)              110.6174         -DE/DX =   -0.0006              !
 ! A10   A(3,2,7)              106.4581         -DE/DX =    0.0                 !
 ! A11   A(3,2,8)              110.7712         -DE/DX =    0.0                 !
 ! A12   A(7,2,8)              107.1068         -DE/DX =    0.0                 !
 ! A13   A(2,3,9)              109.7825         -DE/DX =    0.0                 !
 ! D1    D(4,1,2,3)            177.0921         -DE/DX =    0.0003              !
 ! D2    D(4,1,2,7)             59.1081         -DE/DX =   -0.0001              !
 ! D3    D(4,1,2,8)            -58.9416         -DE/DX =   -0.0002              !
 ! D4    D(5,1,2,3)             56.8903         -DE/DX =    0.0003              !
 ! D5    D(5,1,2,7)            -61.0937         -DE/DX =   -0.0001              !
 ! D6    D(5,1,2,8)           -179.1433         -DE/DX =   -0.0002              !
 ! D7    D(6,1,2,3)            -62.7168         -DE/DX =    0.0003              !
 ! D8    D(6,1,2,7)            179.2992         -DE/DX =   -0.0001              !
 ! D9    D(6,1,2,8)             61.2496         -DE/DX =   -0.0002              !
 ! D10   D(1,2,3,9)             90.0            -DE/DX =   -0.0016              !
 ! D11   D(7,2,3,9)           -149.9896         -DE/DX =   -0.0007              !
 ! D12   D(8,2,3,9)            -33.8799         -DE/DX =   -0.0008              !
 --------------------------------------------------------------------------------
 Iteration  1 RMS(Cart)=  0.02405067 RMS(Int)=  0.02130665
 Iteration  2 RMS(Cart)=  0.00068306 RMS(Int)=  0.02129439
 Iteration  3 RMS(Cart)=  0.00000564 RMS(Int)=  0.02129439
 Iteration  4 RMS(Cart)=  0.00000031 RMS(Int)=  0.02129439
 Iteration  1 RMS(Cart)=  0.01172599 RMS(Int)=  0.01047194
 Iteration  2 RMS(Cart)=  0.00574552 RMS(Int)=  0.01170888
 Iteration  3 RMS(Cart)=  0.00282213 RMS(Int)=  0.01306566
 Iteration  4 RMS(Cart)=  0.00138814 RMS(Int)=  0.01386119
 Iteration  5 RMS(Cart)=  0.00068330 RMS(Int)=  0.01427806
 Iteration  6 RMS(Cart)=  0.00033647 RMS(Int)=  0.01448887
 Iteration  7 RMS(Cart)=  0.00016572 RMS(Int)=  0.01459397
 Iteration  8 RMS(Cart)=  0.00008163 RMS(Int)=  0.01464604
 Iteration  9 RMS(Cart)=  0.00004021 RMS(Int)=  0.01467176
 Iteration 10 RMS(Cart)=  0.00001981 RMS(Int)=  0.01468444
 Iteration 11 RMS(Cart)=  0.00000976 RMS(Int)=  0.01469070
 Iteration 12 RMS(Cart)=  0.00000481 RMS(Int)=  0.01469378
 Iteration 13 RMS(Cart)=  0.00000237 RMS(Int)=  0.01469530
 Iteration 14 RMS(Cart)=  0.00000117 RMS(Int)=  0.01469604
 Iteration 15 RMS(Cart)=  0.00000057 RMS(Int)=  0.01469641
 GradGradGradGradGradGradGradGradGradGradGradGradGradGradGradGradGradGrad

                          Input orientation:                          
 ---------------------------------------------------------------------
 Center     Atomic      Atomic             Coordinates (Angstroms)
 Number     Number       Type             X           Y           Z
 ---------------------------------------------------------------------
      1          6           0       -1.220211   -0.232656   -0.020017
      2          6           0        0.079177    0.557634   -0.022708
      3          8           0        1.203507   -0.284577   -0.084843
      4          1           0       -2.073736    0.426263    0.112740
      5          1           0       -1.214283   -0.957174    0.786543
      6          1           0       -1.351127   -0.770751   -0.954715
      7          1           0        0.120025    1.053766    0.939348
      8          1           0        0.139237    1.330168   -0.786012
      9          1           0        1.529571   -0.318273   -0.972716
 ---------------------------------------------------------------------
                    Distance matrix (angstroms):
                    1          2          3          4          5
     1  C    0.000000
     2  C    1.520846   0.000000
     3  O    2.425140   1.406164   0.000000
     4  H    1.086418   2.161166   3.359263   0.000000
     5  H    1.084206   2.150016   2.656578   1.762546   0.000000
     6  H    1.086437   2.163103   2.742115   1.759110   1.756548
     7  H    2.090812   1.083221   2.003512   2.426855   2.418182
     8  H    2.208452   1.087680   2.057112   2.553831   3.088183
     9  H    2.911402   1.942516   0.946453   3.836192   3.321434
                    6          7          8          9
     6  H    0.000000
     7  H    3.013408   0.000000
     8  H    2.581377   1.747465   0.000000
     9  H    2.916073   2.743228   2.164542   0.000000
 Symmetry turned off by external request.
 Stoichiometry    C2H6O
 Framework group  C1[X(C2H6O)]
 Deg. of freedom    21
 Full point group                 C1      NOp   1
 Rotational constants (GHZ):     35.5388882      9.1981342      8.2067007
 Standard basis: 6-31G(d) (6D, 7F)
 Integral buffers will be    131072 words long.
 Raffenetti 1 integral format.
 Two-electron integral symmetry is turned off.
    57 basis functions,   108 primitive gaussians,    57 cartesian basis functions
    13 alpha electrons       13 beta electrons
       nuclear repulsion energy        82.1412554325 Hartrees.
 NAtoms=    9 NActive=    9 NUniq=    9 SFac= 7.50D-01 NAtFMM=   80 NAOKFM=F Big=F
 One-electron integrals computed using PRISM.
 NBasis=    57 RedAO= T  NBF=    57
 NBsUse=    57 1.00D-06 NBFU=    57
 Initial guess read from the read-write file.
 B after Tr=     0.000000    0.000000    0.000000
         Rot=    1.000000    0.000000    0.000000    0.000000 Ang=   0.00 deg.
 Harris functional with IExCor=  205 diagonalized for initial guess.
 ExpMin= 1.61D-01 ExpMax= 5.48D+03 ExpMxC= 8.25D+02 IAcc=1 IRadAn=         1 AccDes= 0.00D+00
 HarFok:  IExCor=  205 AccDes= 0.00D+00 IRadAn=         1 IDoV= 1
 ScaDFX=  1.000000  1.000000  1.000000  1.000000
 FoFCou: FMM=F IPFlag=           0 FMFlag=      100000 FMFlg1=           0
         NFxFlg=           0 DoJE=T BraDBF=F KetDBF=T FulRan=T
         Omega=  0.000000  0.000000  1.000000  0.000000  0.000000 ICntrl=     500 IOpCl=  0
         NMat0=    1 NMatS0=    1 NMatT0=    0 NMatD0=    1 NMtDS0=    0 NMtDT0=    0
         I1Cent=           4 NGrid=           0.
 Symmetry not used in FoFCou.
 Requested convergence on RMS density matrix=1.00D-08 within 128 cycles.
 Requested convergence on MAX density matrix=1.00D-06.
 Requested convergence on             energy=1.00D-06.
 No special actions if energy rises.
 Keep R1 ints in memory in canonical form, NReq=2215640.
 SCF Done:  E(RHF) =  -154.073115865     A.U. after   10 cycles
             Convg  =    0.8970D-08             -V/T =  2.0012
 Calling FoFJK, ICntrl=      2127 FMM=F ISym2X=0 I1Cent= 0 IOpClX= 0 NMat=1 NMatS=1 NMatT=0.
 -------------------------------------------------------------------
 Center     Atomic                   Forces (Hartrees/Bohr)
 Number     Number              X              Y              Z
 -------------------------------------------------------------------
      1        6          -0.000551989   -0.000083523   -0.012128748
      2        6           0.000298034   -0.000750733    0.016254070
      3        8           0.001568285    0.000810026   -0.003258110
      4        1           0.000257305    0.000192273    0.000135105
      5        1           0.001352811    0.000887018   -0.000000216
      6        1          -0.001295585   -0.000895554    0.000211063
      7        1           0.005152349    0.004615012   -0.000821899
      8        1          -0.005532426   -0.002968342   -0.001223508
      9        1          -0.001248783   -0.001806177    0.000832243
 -------------------------------------------------------------------
 Cartesian Forces:  Max     0.016254070 RMS     0.004414666

 GradGradGradGradGradGradGradGradGradGradGradGradGradGradGradGradGradGrad
 Berny optimization.
 Internal  Forces:  Max     0.009955489 RMS     0.003097933
 Search for a local minimum.
 Step number   1 out of a maximum of   43 on scan point     2 out of    10
 All quantities printed in internal units (Hartrees-Bohrs-Radians)
 Mixed Optimization -- RFO/linear search
 Second derivative matrix not updated -- first step.
     Eigenvalues ---    0.00342   0.04828   0.05581   0.05716   0.06364
     Eigenvalues ---    0.12260   0.13921   0.15004   0.15995   0.16658
     Eigenvalues ---    0.18668   0.22888   0.30686   0.34962   0.35154
     Eigenvalues ---    0.35336   0.35460   0.35804   0.51143   0.58783
     Eigenvalues --- 1000.000001000.000001000.000001000.000001000.00000
     Eigenvalues --- 1000.000001000.000001000.000001000.000001000.00000
     Eigenvalues --- 1000.000001000.000001000.00000
 RFO step:  Lambda=-2.30746383D-03 EMin= 3.41999174D-03
 Linear search not attempted -- first point.
 Iteration  1 RMS(Cart)=  0.02985386 RMS(Int)=  0.00105336
 Iteration  2 RMS(Cart)=  0.00084489 RMS(Int)=  0.00063516
 Iteration  3 RMS(Cart)=  0.00000060 RMS(Int)=  0.00063516
 Iteration  1 RMS(Cart)=  0.00002804 RMS(Int)=  0.00002472
 Iteration  2 RMS(Cart)=  0.00001375 RMS(Int)=  0.00002764
 Iteration  3 RMS(Cart)=  0.00000675 RMS(Int)=  0.00003083
 Iteration  4 RMS(Cart)=  0.00000331 RMS(Int)=  0.00003269
 Iteration  5 RMS(Cart)=  0.00000162 RMS(Int)=  0.00003366
 Iteration  6 RMS(Cart)=  0.00000080 RMS(Int)=  0.00003415
 Variable       Old X    -DE/DX   Delta X   Delta X   Delta X     New X
                                 (Linear)    (Quad)   (Total)
    R1        2.87398   0.00013   0.00000  -0.00076  -0.00076   2.87322
    R2        2.05303  -0.00007   0.00000   0.00000   0.00000   2.05303
    R3        2.04885  -0.00059   0.00000  -0.00164  -0.00164   2.04721
    R4        2.05307   0.00042   0.00000   0.00090   0.00090   2.05396
    R5        2.65726   0.00096   0.00000   0.00270   0.00270   2.65997
    R6        2.04699   0.00158   0.00000   0.00408   0.00408   2.05107
    R7        2.05542  -0.00156   0.00000  -0.00381  -0.00381   2.05161
    R8        1.78854  -0.00115   0.00000  -0.00242  -0.00242   1.78611
    A1        1.93509  -0.00047   0.00000  -0.00324  -0.00332   1.93177
    A2        1.92185  -0.00260   0.00000  -0.01654  -0.01655   1.90530
    A3        1.93778   0.00278   0.00000   0.01772   0.01774   1.95552
    A4        1.89514   0.00097   0.00000   0.00011   0.00000   1.89514
    A5        1.88689  -0.00061   0.00000   0.00212   0.00207   1.88896
    A6        1.88568  -0.00004   0.00000  -0.00008   0.00001   1.88568
    A7        1.95195  -0.00132   0.00000  -0.00782  -0.00918   1.94277
    A8        1.84279   0.00996   0.00000   0.07640   0.07673   1.91952
    A9        2.00149  -0.00898   0.00000  -0.07180  -0.07173   1.92976
   A10        1.85815  -0.00186   0.00000   0.00703   0.00615   1.86430
   A11        1.92863   0.00400   0.00000   0.00894   0.00704   1.93567
   A12        1.87118  -0.00105   0.00000  -0.00345  -0.00192   1.86925
   A13        1.91584   0.00083   0.00000   0.00304   0.00304   1.91888
    D1        3.05803   0.00152   0.00000   0.03549   0.03517   3.09320
    D2        1.04412  -0.00135   0.00000  -0.01296  -0.01360   1.03053
    D3       -1.01165  -0.00168   0.00000  -0.01959  -0.01859  -1.03024
    D4        0.96032   0.00232   0.00000   0.04826   0.04788   1.00820
    D5       -1.05359  -0.00055   0.00000  -0.00018  -0.00089  -1.05447
    D6       -3.10936  -0.00088   0.00000  -0.00681  -0.00588  -3.11524
    D7       -1.12730   0.00228   0.00000   0.04778   0.04748  -1.07982
    D8       -3.14121  -0.00059   0.00000  -0.00067  -0.00129   3.14069
    D9        1.08620  -0.00092   0.00000  -0.00730  -0.00628   1.07992
   D10        1.74533  -0.00779   0.00000   0.00000   0.00000   1.74533
   D11       -2.53336   0.00233   0.00000   0.09117   0.09115  -2.44221
   D12       -0.50707   0.00209   0.00000   0.09561   0.09602  -0.41105
         Item               Value     Threshold  Converged?
 Maximum Force            0.006608     0.000450     NO 
 RMS     Force            0.002482     0.000300     NO 
 Maximum Displacement     0.092509     0.001800     NO 
 RMS     Displacement     0.029863     0.001200     NO 
 Predicted change in Energy=-1.182487D-03
 GradGradGradGradGradGradGradGradGradGradGradGradGradGradGradGradGradGrad

                          Input orientation:                          
 ---------------------------------------------------------------------
 Center     Atomic      Atomic             Coordinates (Angstroms)
 Number     Number       Type             X           Y           Z
 ---------------------------------------------------------------------
      1          6           0       -1.220012   -0.232785   -0.029088
      2          6           0        0.080938    0.553340    0.006749
      3          8           0        1.196774   -0.299448   -0.088041
      4          1           0       -2.072210    0.429796    0.093577
      5          1           0       -1.223010   -0.952617    0.780513
      6          1           0       -1.343006   -0.775646   -0.962656
      7          1           0        0.168978    1.081922    0.950625
      8          1           0        0.096666    1.300852   -0.780429
      9          1           0        1.527042   -0.301014   -0.973629
 ---------------------------------------------------------------------
                    Distance matrix (angstroms):
                    1          2          3          4          5
     1  C    0.000000
     2  C    1.520443   0.000000
     3  O    2.418424   1.407595   0.000000
     4  H    1.086417   2.158436   3.354257   0.000000
     5  H    1.083337   2.137029   2.652615   1.761842   0.000000
     6  H    1.086911   2.175676   2.728039   1.760812   1.756234
     7  H    2.148857   1.085381   2.010814   2.486509   2.471015
     8  H    2.156432   1.085666   2.061698   2.495325   3.042401
     9  H    2.905705   1.944809   0.945170   3.824609   3.326317
                    6          7          8          9
     6  H    0.000000
     7  H    3.065501   0.000000
     8  H    2.533318   1.746342   0.000000
     9  H    2.909050   2.731228   2.156218   0.000000
 Symmetry turned off by external request.
 Stoichiometry    C2H6O
 Framework group  C1[X(C2H6O)]
 Deg. of freedom    21
 Full point group                 C1      NOp   1
 Rotational constants (GHZ):     35.2465235      9.2443710      8.2287764
 Standard basis: 6-31G(d) (6D, 7F)
 Integral buffers will be    131072 words long.
 Raffenetti 1 integral format.
 Two-electron integral symmetry is turned off.
    57 basis functions,   108 primitive gaussians,    57 cartesian basis functions
    13 alpha electrons       13 beta electrons
       nuclear repulsion energy        82.1591507081 Hartrees.
 NAtoms=    9 NActive=    9 NUniq=    9 SFac= 7.50D-01 NAtFMM=   80 NAOKFM=F Big=F
 One-electron integrals computed using PRISM.
 NBasis=    57 RedAO= T  NBF=    57
 NBsUse=    57 1.00D-06 NBFU=    57
 Initial guess read from the read-write file.
 B after Tr=     0.000000    0.000000    0.000000
         Rot=    1.000000    0.000000    0.000000    0.000000 Ang=   0.00 deg.
 Harris functional with IExCor=  205 diagonalized for initial guess.
 ExpMin= 1.61D-01 ExpMax= 5.48D+03 ExpMxC= 8.25D+02 IAcc=1 IRadAn=         1 AccDes= 0.00D+00
 HarFok:  IExCor=  205 AccDes= 0.00D+00 IRadAn=         1 IDoV= 1
 ScaDFX=  1.000000  1.000000  1.000000  1.000000
 FoFCou: FMM=F IPFlag=           0 FMFlag=      100000 FMFlg1=           0
         NFxFlg=           0 DoJE=T BraDBF=F KetDBF=T FulRan=T
         Omega=  0.000000  0.000000  1.000000  0.000000  0.000000 ICntrl=     500 IOpCl=  0
         NMat0=    1 NMatS0=    1 NMatT0=    0 NMatD0=    1 NMtDS0=    0 NMtDT0=    0
         I1Cent=           4 NGrid=           0.
 Symmetry not used in FoFCou.
 Requested convergence on RMS density matrix=1.00D-08 within 128 cycles.
 Requested convergence on MAX density matrix=1.00D-06.
 Requested convergence on             energy=1.00D-06.
 No special actions if energy rises.
 Keep R1 ints in memory in canonical form, NReq=2215640.
 SCF Done:  E(RHF) =  -154.074129500     A.U. after   10 cycles
             Convg  =    0.6385D-08             -V/T =  2.0012
 Calling FoFJK, ICntrl=      2127 FMM=F ISym2X=0 I1Cent= 0 IOpClX= 0 NMat=1 NMatS=1 NMatT=0.
 -------------------------------------------------------------------
 Center     Atomic                   Forces (Hartrees/Bohr)
 Number     Number              X              Y              Z
 -------------------------------------------------------------------
      1        6          -0.000124635    0.000416619    0.001045543
      2        6           0.000081344   -0.001012508    0.000979336
      3        8           0.001271521    0.001862120   -0.000276759
      4        1          -0.000246841   -0.000170935    0.000122066
      5        1          -0.001287129   -0.001095733    0.000147949
      6        1           0.001598580    0.001204623    0.000222338
      7        1          -0.000927314   -0.000551202   -0.001047843
      8        1           0.000536093    0.000758990   -0.000812256
      9        1          -0.000901619   -0.001411974   -0.000380374
 -------------------------------------------------------------------
 Cartesian Forces:  Max     0.001862120 RMS     0.000906979

 GradGradGradGradGradGradGradGradGradGradGradGradGradGradGradGradGradGrad
 Berny optimization.
 Using GEDIIS/GDIIS optimizer.
 Internal  Forces:  Max     0.003103731 RMS     0.000919345
 Search for a local minimum.
 Step number   2 out of a maximum of   43 on scan point     2 out of    10
 All quantities printed in internal units (Hartrees-Bohrs-Radians)
 Mixed Optimization -- En-DIIS/RFO-DIIS
 Update second derivatives using D2CorX and points    1    2
 DE= -1.01D-03 DEPred=-1.18D-03 R= 8.57D-01
 SS=  1.41D+00  RLast= 1.89D-01 DXNew= 8.4853D-01 5.6755D-01
 Trust test= 8.57D-01 RLast= 1.89D-01 DXMaxT set to 5.68D-01
 Use linear search instead of GDIIS.
     Eigenvalues ---    0.00343   0.04483   0.05613   0.05930   0.06384
     Eigenvalues ---    0.12380   0.13407   0.15998   0.16626   0.17910
     Eigenvalues ---    0.18790   0.23125   0.30697   0.34984   0.35253
     Eigenvalues ---    0.35336   0.35509   0.36219   0.51127   0.58783
     Eigenvalues --- 1000.000001000.000001000.000001000.000001000.00000
     Eigenvalues --- 1000.000001000.000001000.000001000.000001000.00000
     Eigenvalues --- 1000.000001000.000001000.00000
 RFO step:  Lambda=-1.15853380D-04 EMin= 3.43494482D-03
 Quartic linear search produced a step of -0.10770.
 Iteration  1 RMS(Cart)=  0.00872662 RMS(Int)=  0.00010430
 Iteration  2 RMS(Cart)=  0.00006928 RMS(Int)=  0.00007499
 Iteration  3 RMS(Cart)=  0.00000000 RMS(Int)=  0.00007499
 Iteration  1 RMS(Cart)=  0.00000154 RMS(Int)=  0.00000136
 Iteration  2 RMS(Cart)=  0.00000076 RMS(Int)=  0.00000152
 Variable       Old X    -DE/DX   Delta X   Delta X   Delta X     New X
                                 (Linear)    (Quad)   (Total)
    R1        2.87322  -0.00017   0.00008  -0.00083  -0.00075   2.87247
    R2        2.05303   0.00010   0.00000   0.00029   0.00029   2.05332
    R3        2.04721   0.00084   0.00018   0.00197   0.00214   2.04935
    R4        2.05396  -0.00097  -0.00010  -0.00240  -0.00250   2.05147
[...]
 Mixed Optimization -- En-DIIS/RFO-DIIS
 Swaping is turned off.
 Update second derivatives using D2CorX and points    1    2    3
 DE= -1.14D-06 DEPred=-1.10D-06 R= 1.03D+00
 SS=  1.41D+00  RLast= 1.23D-02 DXNew= 9.7687D-01 3.6763D-02
 Trust test= 1.03D+00 RLast= 1.23D-02 DXMaxT set to 5.81D-01
     Eigenvalues ---    0.00310   0.05013   0.05609   0.05936   0.06296
     Eigenvalues ---    0.12342   0.13311   0.16245   0.17234   0.17629
     Eigenvalues ---    0.18993   0.27912   0.34877   0.35226   0.35373
     Eigenvalues ---    0.35867   0.36396   0.37217   0.46421   0.59242
     Eigenvalues --- 1000.000001000.000001000.000001000.000001000.00000
     Eigenvalues --- 1000.000001000.000001000.000001000.000001000.00000
     Eigenvalues --- 1000.000001000.000001000.00000
 En-DIIS/RFO-DIIS IScMMF=        0 using points:     3    2
 RFO step:  Lambda= 0.00000000D+00.
 DIIS coeffs:      1.03797     -0.03797
 Iteration  1 RMS(Cart)=  0.00017213 RMS(Int)=  0.00000003
 Iteration  2 RMS(Cart)=  0.00000002 RMS(Int)=  0.00000002
 Iteration  1 RMS(Cart)=  0.00000020 RMS(Int)=  0.00000018
 Variable       Old X    -DE/DX   Delta X   Delta X   Delta X     New X
                                  (DIIS)     (GDIIS)  (Total)
    R1        2.86409   0.00001  -0.00001   0.00001   0.00001   2.86409
    R2        2.05163  -0.00001   0.00000  -0.00004  -0.00003   2.05160
    R3        2.04889   0.00000   0.00000   0.00001   0.00000   2.04889
    R4        2.04886   0.00001   0.00000   0.00003   0.00003   2.04889
    R5        2.65418   0.00000   0.00001  -0.00002  -0.00001   2.65417
    R6        2.05706   0.00000   0.00001  -0.00003  -0.00001   2.05705
    R7        2.05707  -0.00001   0.00001  -0.00003  -0.00002   2.05705
    R8        1.78882   0.00001  -0.00001   0.00002   0.00001   1.78883
    A1        1.93101   0.00001   0.00001   0.00006   0.00007   1.93108
    A2        1.92516  -0.00001   0.00002  -0.00004  -0.00002   1.92514
    A3        1.92516   0.00000  -0.00003   0.00000  -0.00003   1.92513
    A4        1.89603   0.00000   0.00002   0.00001   0.00003   1.89606
    A5        1.89610  -0.00001  -0.00001  -0.00003  -0.00004   1.89606
    A6        1.88946   0.00000  -0.00001  -0.00001  -0.00002   1.88944
    A7        1.88570  -0.00001   0.00001  -0.00005  -0.00004   1.88566
    A8        1.92086   0.00001   0.00008   0.00001   0.00010   1.92095
    A9        1.92089   0.00001  -0.00006   0.00010   0.00004   1.92094
   A10        1.93037   0.00000   0.00001   0.00000   0.00001   1.93039
   A11        1.93037   0.00000   0.00000   0.00003   0.00003   1.93040
   A12        1.87599  -0.00001  -0.00004  -0.00010  -0.00014   1.87585
   A13        1.91378   0.00002   0.00000   0.00012   0.00012   1.91390
    D1        3.14118   0.00000   0.00020   0.00019   0.00038   3.14156
    D2        1.03182   0.00000   0.00013   0.00020   0.00033   1.03216
    D3       -1.03263   0.00000   0.00016   0.00026   0.00042  -1.03221
    D4        1.04284   0.00000   0.00015   0.00015   0.00030   1.04315
    D5       -1.06651   0.00000   0.00009   0.00017   0.00026  -1.06626
    D6       -3.13097   0.00000   0.00012   0.00022   0.00034  -3.13062
    D7       -1.04357   0.00000   0.00017   0.00019   0.00036  -1.04321
    D8        3.13026   0.00000   0.00010   0.00021   0.00031   3.13057
    D9        1.06580   0.00000   0.00013   0.00026   0.00040   1.06620
   D10        3.14159   0.00000   0.00000   0.00000   0.00000   3.14159
   D11       -1.03818   0.00001   0.00011  -0.00001   0.00010  -1.03808
   D12        1.03813  -0.00001   0.00007  -0.00011  -0.00004   1.03809
         Item               Value     Threshold  Converged?
 Maximum Force            0.000021     0.000450     YES
 RMS     Force            0.000008     0.000300     YES
 Maximum Displacement     0.000454     0.001800     YES
 RMS     Displacement     0.000172     0.001200     YES
 Predicted change in Energy=-7.149156D-09
 Optimization completed.
    -- Stationary point found.
                           ----------------------------
                           !   Optimized Parameters   !
                           ! (Angstroms and Degrees)  !
 --------------------------                            --------------------------
 ! Name  Definition              Value          Derivative Info.                !
 --------------------------------------------------------------------------------
 ! R1    R(1,2)                  1.5156         -DE/DX =    0.0                 !
 ! R2    R(1,4)                  1.0857         -DE/DX =    0.0                 !
 ! R3    R(1,5)                  1.0842         -DE/DX =    0.0                 !
 ! R4    R(1,6)                  1.0842         -DE/DX =    0.0                 !
 ! R5    R(2,3)                  1.4045         -DE/DX =    0.0                 !
 ! R6    R(2,7)                  1.0885         -DE/DX =    0.0                 !
 ! R7    R(2,8)                  1.0886         -DE/DX =    0.0                 !
 ! R8    R(3,9)                  0.9466         -DE/DX =    0.0                 !
 ! A1    A(2,1,4)              110.6386         -DE/DX =    0.0                 !
 ! A2    A(2,1,5)              110.3033         -DE/DX =    0.0                 !
 ! A3    A(2,1,6)              110.3037         -DE/DX =    0.0                 !
 ! A4    A(4,1,5)              108.6343         -DE/DX =    0.0                 !
 ! A5    A(4,1,6)              108.6386         -DE/DX =    0.0                 !
 ! A6    A(5,1,6)              108.2583         -DE/DX =    0.0                 !
 ! A7    A(1,2,3)              108.0428         -DE/DX =    0.0                 !
 ! A8    A(1,2,7)              110.0571         -DE/DX =    0.0                 !
 ! A9    A(1,2,8)              110.0592         -DE/DX =    0.0                 !
 ! A10   A(3,2,7)              110.6022         -DE/DX =    0.0                 !
 ! A11   A(3,2,8)              110.6023         -DE/DX =    0.0                 !
 ! A12   A(7,2,8)              107.4864         -DE/DX =    0.0                 !
 ! A13   A(2,3,9)              109.6517         -DE/DX =    0.0                 !
 ! D1    D(4,1,2,3)            179.9762         -DE/DX =    0.0                 !
 ! D2    D(4,1,2,7)             59.1191         -DE/DX =    0.0                 !
 ! D3    D(4,1,2,8)            -59.1653         -DE/DX =    0.0                 !
 ! D4    D(5,1,2,3)             59.7504         -DE/DX =    0.0                 !
 ! D5    D(5,1,2,7)            -61.1066         -DE/DX =    0.0                 !
 ! D6    D(5,1,2,8)           -179.3911         -DE/DX =    0.0                 !
 ! D7    D(6,1,2,3)            -59.7924         -DE/DX =    0.0                 !
 ! D8    D(6,1,2,7)            179.3505         -DE/DX =    0.0                 !
 ! D9    D(6,1,2,8)             61.0661         -DE/DX =    0.0                 !
 ! D10   D(1,2,3,9)            179.9999         -DE/DX =    0.0                 !
 ! D11   D(7,2,3,9)            -59.4833         -DE/DX =    0.0                 !
 ! D12   D(8,2,3,9)             59.4806         -DE/DX =    0.0                 !
 --------------------------------------------------------------------------------
 GradGradGradGradGradGradGradGradGradGradGradGradGradGradGradGradGradGrad

 Summary of Optimized Potential Surface Scan
                           1         2         3         4         5
     Eigenvalues --  -154.07473-154.07420-154.07380-154.07363-154.07377
           R1           1.52070   1.52026   1.51933   1.51847   1.51785
           R2           1.08642   1.08647   1.08645   1.08636   1.08623
           R3           1.08418   1.08421   1.08425   1.08431   1.08446
           R4           1.08639   1.08593   1.08551   1.08514   1.08466
           R5           1.40612   1.40735   1.40834   1.40829   1.40857
           R6           1.08313   1.08377   1.08448   1.08541   1.08614
           R7           1.08754   1.08718   1.08691   1.08703   1.08705
           R8           0.94581   0.94517   0.94468   0.94443   0.94456
           A1         110.87564 110.86556 110.85464 110.78698 110.79239
           A2         110.11937 110.08838 110.08715 110.14168 110.20201
           A3         111.01248 110.94602 110.81693 110.70148 110.54410
           A4         108.58855 108.53887 108.50207 108.46495 108.43803
           A5         108.11081 108.26957 108.42957 108.57573 108.67050
           A6         108.04191 108.04363 108.06630 108.09058 108.11770
           A7         111.81328 111.37481 110.81718 110.23609 109.62561
           A8         109.87962 109.89391 109.98279 110.10982 110.29501
           A9         110.61737 110.56184 110.37543 110.10679 109.91955
           A10        106.45811 106.99836 107.68894 108.43034 109.08570
           A11        110.77123 110.78605 110.77853 110.78219 110.69043
           A12        107.10676 107.06862 107.08985 107.11103 107.19289
           A13        109.78246 110.02420 110.19917 110.34280 110.29940
           D1         177.09208 176.91964 176.91143 177.00456 177.24605
           D2          59.10805  58.52804  57.95468  57.41382  57.11383
           D3         -58.94155 -59.44964 -59.99027 -60.47128 -60.87000
           D4          56.89029  56.80669  56.85227  56.99972  57.23208
           D5         -61.09373 -61.58491 -62.10449 -62.59102 -62.90014
           D6        -179.14334-179.56259 179.95057 179.52388 179.11603
           D7         -62.71678 -62.73998 -62.63971 -62.48418 -62.22425
           D8         179.29920 178.86842 178.40354 177.92508 177.64353
           D9          61.24960  60.89074  60.45859  60.03998  59.65970
           D10         90.00005 100.00008 109.99991 119.99998 129.99986
           D11       -149.98958-139.88378-129.66826-119.39622-109.13320
           D12        -33.87991 -23.50314 -12.86520  -2.12630   8.57861
                           6         7         8         9        10
     Eigenvalues --  -154.07415-154.07469-154.07522-154.07560-154.07574
           R1           1.51728   1.51653   1.51603   1.51577   1.51561
           R2           1.08604   1.08591   1.08579   1.08569   1.08568
           R3           1.08456   1.08449   1.08443   1.08430   1.08423
           R4           1.08438   1.08412   1.08412   1.08416   1.08421
           R5           1.40729   1.40719   1.40553   1.40475   1.40453
           R6           1.08704   1.08763   1.08807   1.08841   1.08855
           R7           1.08746   1.08785   1.08817   1.08842   1.08856
           R8           0.94489   0.94549   0.94606   0.94644   0.94660
           A1         110.71201 110.71013 110.67165 110.66129 110.63863
           A2         110.28180 110.29151 110.30747 110.30310 110.30333
           A3         110.46748 110.36537 110.31832 110.29951 110.30368
           A4         108.42730 108.45791 108.49830 108.56764 108.63428
           A5         108.73083 108.76579 108.75210 108.69943 108.63862
           A6         108.14890 108.18107 108.22687 108.24504 108.25831
           A7         109.09064 108.62086 108.31410 108.10702 108.04280
           A8         110.36781 110.45133 110.36548 110.24176 110.05709
           A9         109.73631 109.72288 109.74453 109.88746 110.05915
           A10        109.71114 110.08194 110.39777 110.56029 110.60216
           A11        110.67218 110.59837 110.60229 110.60867 110.60228
           A12        107.25065 107.36525 107.42138 107.44389 107.48641
           A13        110.20374 110.01241 109.83574 109.69179 109.65175
           D1         177.56656 177.98170 178.56118 179.26327 179.97620
           D2          56.95589  57.16077  57.59861  58.30655  59.11912
           D3         -61.03084 -61.00881 -60.60110 -59.93329 -59.16534
           D4          57.56589  57.93772  58.48123  59.10623  59.75044
           D5         -63.04478 -62.88321 -62.48134 -61.85049 -61.10665
           D6         178.96850 178.94721 179.31895 179.90968-179.39111
           D7         -61.93144 -61.54088 -61.03450 -60.41733 -59.79238
           D8         177.45789 177.63818 178.00293 178.62595 179.35053
           D9          59.47117  59.46861  59.80322  60.38612  61.06608
           D10        139.99991 149.99997 159.99993 169.99991 179.99994
           D11        -98.98780 -88.95150 -79.05750 -69.24164 -59.48327
           D12         19.16786  29.53100  39.69571  49.64671  59.48056
                          Input orientation:                          
 ---------------------------------------------------------------------
 Center     Atomic      Atomic             Coordinates (Angstroms)
 Number     Number       Type             X           Y           Z
 ---------------------------------------------------------------------
      1          6           0       -1.269279   -0.228785    0.003877
      2          6           0        0.056636    0.495294   -0.117495
      3          8           0        1.047467   -0.457085   -0.407213
      4          1           0       -2.068260    0.471008    0.228843
      5          1           0       -1.223117   -0.968080    0.795621
      6          1           0       -1.505886   -0.738424   -0.923376
      7          1           0        0.284687    1.014837    0.811486
      8          1           0        0.002502    1.243751   -0.906060
      9          1           0        1.887412   -0.028116   -0.488062
 ---------------------------------------------------------------------
                    Distance matrix (angstroms):
                    1          2          3          4          5
     1  C    0.000000
     2  C    1.515610   0.000000
     3  O    2.363986   1.404531   0.000000
     4  H    1.085676   2.153073   3.312655   0.000000
     5  H    1.084227   2.147793   2.619824   1.762521   0.000000
     6  H    1.084210   2.147785   2.620150   1.762555   1.757171
     7  H    2.147938   1.088548   2.057575   2.484267   2.491121
     8  H    2.147970   1.088555   2.057582   2.484591   3.047960
     9  H    3.201089   1.939850   0.946604   4.050978   3.493818
                    6          7          8          9
     6  H    0.000000
     7  H    3.047921   0.000000
     8  H    2.490894   1.755561   0.000000
     9  H    3.494067   2.311991   2.311981   0.000000
 Symmetry turned off by external request.
 Stoichiometry    C2H6O
 Framework group  C1[X(C2H6O)]
 Deg. of freedom    21
 Full point group                 C1      NOp   1
 Rotational constants (GHZ):     35.8362061      9.4819944      8.2600731

 **********************************************************************

            Population analysis using the SCF density.

 **********************************************************************

 Alpha  occ. eigenvalues --  -20.55277 -11.27051 -11.20867  -1.35975  -1.01157
 Alpha  occ. eigenvalues --   -0.83606  -0.70233  -0.64540  -0.56889  -0.53386
 Alpha  occ. eigenvalues --   -0.52478  -0.48295  -0.43524
 Alpha virt. eigenvalues --    0.22696   0.26575   0.31212   0.31277   0.32938
 Alpha virt. eigenvalues --    0.35230   0.40344   0.41416   0.72499   0.75658
 Alpha virt. eigenvalues --    0.79199   0.82125   0.90646   0.93676   1.08950
 Alpha virt. eigenvalues --    1.12684   1.16626   1.18095   1.19370   1.20269
 Alpha virt. eigenvalues --    1.25369   1.29338   1.29554   1.43022   1.64598
 Alpha virt. eigenvalues --    1.71631   1.76462   1.92108   2.03428   2.08867
 Alpha virt. eigenvalues --    2.23514   2.27231   2.38903   2.51359   2.57824
 Alpha virt. eigenvalues --    2.68242   2.72627   2.76370   2.87124   2.97930
 Alpha virt. eigenvalues --    3.21388   4.15841   4.60732   4.82891
          Condensed to atoms (all electrons):
              1          2          3          4          5          6
     1  C    5.111072   0.356982  -0.060408   0.383176   0.389581   0.389583
     2  C    0.356982   4.746056   0.215885  -0.036437  -0.035048  -0.035050
     3  O   -0.060408   0.215885   8.393156   0.002856   0.001886   0.001887
     4  H    0.383176  -0.036437   0.002856   0.547437  -0.025407  -0.025403
     5  H    0.389581  -0.035048   0.001886  -0.025407   0.522576  -0.027511
     6  H    0.389583  -0.035050   0.001887  -0.025403  -0.027511   0.522587
     7  H   -0.044944   0.401446  -0.040979  -0.000201  -0.005217   0.004842
     8  H   -0.044937   0.401441  -0.040980  -0.000197   0.004841  -0.005222
     9  H    0.006127  -0.022411   0.261846  -0.000197  -0.000154  -0.000154
              7          8          9
     1  C   -0.044944  -0.044937   0.006127
     2  C    0.401446   0.401441  -0.022411
     3  O   -0.040979  -0.040980   0.261846
     4  H   -0.000201  -0.000197  -0.000197
     5  H   -0.005217   0.004841  -0.000154
     6  H    0.004842  -0.005222  -0.000154
     7  H    0.601939  -0.050208  -0.003307
     8  H   -0.050208   0.601938  -0.003307
     9  H   -0.003307  -0.003307   0.323834
 Mulliken atomic charges:
              1
     1  C   -0.486232
     2  C    0.007136
     3  O   -0.735151
     4  H    0.154374
     5  H    0.174452
     6  H    0.174441
     7  H    0.136628
     8  H    0.136629
     9  H    0.437723
 Sum of Mulliken atomic charges =   0.00000
 Mulliken charges with hydrogens summed into heavy atoms:
              1
     1  C    0.017035
     2  C    0.280393
     3  O   -0.297428
 Sum of Mulliken charges with hydrogens summed into heavy atoms =   0.00000
 Electronic spatial extent (au):  <R**2>=            194.8494
 Charge=              0.0000 electrons
 Dipole moment (field-independent basis, Debye):
    X=              0.3105    Y=              1.7011    Z=              0.1757  Tot=              1.7381
 Quadrupole moment (field-independent basis, Debye-Ang):
   XX=            -16.7435   YY=            -20.8176   ZZ=            -20.1301
   XY=              1.7620   XZ=             -0.3657   YZ=             -0.6857
 Traceless Quadrupole moment (field-independent basis, Debye-Ang):
   XX=              2.4869   YY=             -1.5872   ZZ=             -0.8997
   XY=              1.7620   XZ=             -0.3657   YZ=             -0.6857
 Octapole moment (field-independent basis, Debye-Ang**2):
  XXX=             19.3580  YYY=              1.9717  ZZZ=              9.3607  XYY=              1.7028
  XXY=              2.6379  XXZ=              0.9427  XZZ=              2.9173  YZZ=              0.6959
  YYZ=              3.5045  XYZ=             -0.7956
 Hexadecapole moment (field-independent basis, Debye-Ang**3):
 XXXX=           -131.0271 YYYY=            -55.5947 ZZZZ=            -38.7484 XXXY=             -0.4600
 XXXZ=              2.5600 YYYX=             -0.1142 YYYZ=             -2.2935 ZZZX=              9.0410
 ZZZY=             -1.9675 XXYY=            -35.0780 XXZZ=            -31.1483 YYZZ=            -14.8413
 XXYZ=             -0.5258 YYXZ=              2.9460 ZZXY=              1.1101
 N-N= 8.241929750369D+01 E-N=-5.266143214945D+02  KE= 1.538897680649D+02
 1\1\GINC-BLOGIN3\Scan\RHF\6-31G(d)\C2H6O1\RUPAKHETIC\23-Jun-2017\0\\#H
 F/6-31G* nosymm opt=ModRedundant\\Mol dihedral scan\\0,1\C,-1.26927945
 53,-0.2287851118,0.0038765082\C,0.0566361023,0.4952942602,-0.117495096
 1\O,1.0474669019,-0.457084988,-0.4072131717\H,-2.0682604346,0.47100826
 03,0.2288433298\H,-1.2231173713,-0.9680801976,0.795620792\H,-1.5058860
 781,-0.7384243753,-0.9233759626\H,0.2846867452,1.014837105,0.811485539
 1\H,0.0025017176,1.2437510012,-0.9060601259\H,1.8874118723,-0.02811595
 4,-0.4880618128\\Version=EM64L-G09RevA.02\HF=-154.0747279,-154.0742018
 ,-154.0737954,-154.0736327,-154.0737653,-154.0741542,-154.0746881,-154
 .075219,-154.0756044,-154.0757448\RMSD=9.717e-09,9.377e-09,2.705e-09,2
 .283e-09,2.051e-09,2.635e-09,4.748e-09,6.843e-09,9.861e-09,9.260e-09\P
 G=C01 [X(C2H6O1)]\\@


 IT IS A SIMPLE TASK TO MAKE THINGS COMPLEX,
 BUT A COMPLEX TASK TO MAKE THEM SIMPLE.
 Job cpu time:  0 days  0 hours  1 minutes 20.4 seconds.
 File lengths (MBytes):  RWF=     72 Int=      0 D2E=      0 Chk=      3 Scr=      2
 Normal termination of Gaussian 09 at Fri Jun 23 14:11:43 2017.
