 Entering Gaussian System, Link 0=/homes/huanglei/prog/g09/g09
 Initial command:
 /homes/huanglei/prog/g09/l1.exe /lcrc/project/Drude/chetan/tmp/2/Gau-69975.inp -scrdir=/lcrc/project/Drude/chetan/tmp/2/
 Entering Link 1 = /homes/huanglei/prog/g09/l1.exe PID=     69977.
  
 Copyright (c) 1988,1990,1992,1993,1995,1998,2003,2009, Gaussian, Inc.
                  All Rights Reserved.
  
 This is part of the Gaussian(R) 09 program.  It is based on
 the Gaussian(R) 03 system (copyright 2003, Gaussian, Inc.),
 the Gaussian(R) 98 system (copyright 1998, Gaussian, Inc.),
 the Gaussian(R) 94 system (copyright 1995, Gaussian, Inc.),
 the Gaussian 92(TM) system (copyright 1992, Gaussian, Inc.),
 the Gaussian 90(TM) system (copyright 1990, Gaussian, Inc.),
 the Gaussian 88(TM) system (copyright 1988, Gaussian, Inc.),
 the Gaussian 86(TM) system (copyright 1986, Carnegie Mellon
 University), and the Gaussian 82(TM) system (copyright 1983,
 Carnegie Mellon University). Gaussian is a federally registered
 trademark of Gaussian, Inc.
  
 This software contains proprietary and confidential information,
 including trade secrets, belonging to Gaussian, Inc.
  
 This software is provided under written license and may be
 used, copied, transmitted, or stored only in accord with that
 written license.
  
 The following legend is applicable only to US Government
 contracts under FAR:
  
                    RESTRICTED RIGHTS LEGEND
  
 Use, reproduction and disclosure by the US Government is
 subject to restrictions as set forth in subparagraphs (a)
 and (c) of the Commercial Computer Software - Restricted
 Rights clause in FAR 52.227-19.
  
 Gaussian, Inc.
 340 Quinnipiac St., Bldg. 40, Wallingford CT 06492
  
  
 ---------------------------------------------------------------
 Warning -- This program may not be used in any manner that
 competes with the business of Gaussian, Inc. or will provide
 assistance to any competitor of Gaussian, Inc.  The licensee
 of this program is prohibited from giving any competitor of
 Gaussian, Inc. access to this program.  By using this program,
 the user acknowledges that Gaussian, Inc. is engaged in the
 business of creating and licensing software in the field of
 computational chemistry and represents and warrants to the
 licensee that it is not a competitor of Gaussian, Inc. and that
 it will not use this program in any manner prohibited above.
 ---------------------------------------------------------------
  

 Cite this work as:
 Gaussian 09, Revision A.02,
 M. J. Frisch, G. W. Trucks, H. B. Schlegel, G. E. Scuseria, 
 M. A. Robb, J. R. Cheeseman, G. Scalmani, V. Barone, B. Mennucci, 
 G. A. Petersson, H. Nakatsuji, M. Caricato, X. Li, H. P. Hratchian, 
 A. F. Izmaylov, J. Bloino, G. Zheng, J. L. Sonnenberg, M. Hada, 
 M. Ehara, K. Toyota, R. Fukuda, J. Hasegawa, M. Ishida, T. Nakajima, 
 Y. Honda, O. Kitao, H. Nakai, T. Vreven, J. A. Montgomery, Jr., 
 J. E. Peralta, F. Ogliaro, M. Bearpark, J. J. Heyd, E. Brothers, 
 K. N. Kudin, V. N. Staroverov, R. Kobayashi, J. Normand, 
 K. Raghavachari, A. Rendell, J. C. Burant, S. S. Iyengar, J. Tomasi, 
 M. Cossi, N. Rega, J. M. Millam, M. Klene, J. E. Knox, J. B. Cross, 
 V. Bakken, C. Adamo, J. Jaramillo, R. Gomperts, R. E. Stratmann, 
 O. Yazyev, A. J. Austin, R. Cammi, C. Pomelli, J. W. Ochterski, 
 R. L. Martin, K. Morokuma, V. G. Zakrzewski, G. A. Voth, 
 P. Salvador, J. J. Dannenberg, S. Dapprich, A. D. Daniels, 
 O. Farkas, J. B. Foresman, J. V. Ortiz, J. Cioslowski, 
 and D. J. Fox, Gaussian, Inc., Wallingford CT, 2009.
 
 ******************************************
 Gaussian 09:  EM64L-G09RevA.02 11-Jun-2009
                23-Jun-2017 
 ******************************************
 %mem=1GB
 %nproc=3
 Will use up to    3 processors via shared memory.
 ----------------------------------
 #HF/6-31G* nosymm opt=ModRedundant
 ----------------------------------
 1/18=120,19=15,38=1/1,3;
 2/9=110,12=2,15=1,17=6,18=5,40=1/2;
 3/5=1,6=6,7=1,11=9,16=1,25=1,30=1,71=1/1,2,3;
 4//1;
 5/5=2,38=5/2;
 6/7=2,8=2,9=2,10=2,28=1/1;
 7/30=1/1,2,3,16;
 1/18=20,19=15/3(2);
 2/9=110,15=1/2;
 99//99;
 2/9=110,15=1/2;
 3/5=1,6=6,7=1,11=9,16=1,25=1,30=1,71=1/1,2,3;
 4/5=5,16=3/1;
 5/5=2,38=5/2;
 7/30=1/1,2,3,16;
 1/18=20,19=15/3(-5);
 2/9=110,15=1/2;
 6/7=2,8=2,9=2,10=2,19=2,28=1/1;
 99/9=1/99;
 -----------------
 Mol dihedral scan
 -----------------
 Symbolic Z-matrix:
 Charge =  0 Multiplicity = 1
 C                    -1.20905  -0.23651  -0.01918 
 C                     0.08991   0.55293   0.04491 
 O                     1.222    -0.26249  -0.11001 
 H                    -2.06738   0.42387   0.06207 
 H                    -1.26769  -0.95774   0.79247 
 H                    -1.27637  -0.77802  -0.95628 
 H                     0.14555   1.11298   0.97665 
 H                     0.13148   1.27043  -0.76403 
 H                     0.94807  -1.16168  -0.22625 
 
 The following ModRedundant input section has been read:
 D    1    2    3    9 0.0000 B                                                
 D    1    2    3    9 S   8 10.000                                            
 Iteration  1 RMS(Cart)=  0.00000022 RMS(Int)=  0.00000022
 Iteration  1 RMS(Cart)=  0.00000011 RMS(Int)=  0.00000011

 GradGradGradGradGradGradGradGradGradGradGradGradGradGradGradGradGradGrad
 Berny optimization.
 Initialization pass.
                           ----------------------------
                           !    Initial Parameters    !
                           ! (Angstroms and Degrees)  !
 --------------------------                            --------------------------
 ! Name  Definition              Value          Derivative Info.                !
 --------------------------------------------------------------------------------
 ! R1    R(1,2)                  1.5214         estimate D2E/DX2                !
 ! R2    R(1,4)                  1.086          estimate D2E/DX2                !
 ! R3    R(1,5)                  1.0874         estimate D2E/DX2                !
 ! R4    R(1,6)                  1.0844         estimate D2E/DX2                !
 ! R5    R(2,3)                  1.4038         estimate D2E/DX2                !
 ! R6    R(2,7)                  1.0885         estimate D2E/DX2                !
 ! R7    R(2,8)                  1.0821         estimate D2E/DX2                !
 ! R8    R(3,9)                  0.9471         estimate D2E/DX2                !
 ! A1    A(2,1,4)              110.862          estimate D2E/DX2                !
 ! A2    A(2,1,5)              111.0247         estimate D2E/DX2                !
 ! A3    A(2,1,6)              110.3972         estimate D2E/DX2                !
 ! A4    A(4,1,5)              107.7495         estimate D2E/DX2                !
 ! A5    A(4,1,6)              108.6168         estimate D2E/DX2                !
 ! A6    A(5,1,6)              108.0878         estimate D2E/DX2                !
 ! A7    A(1,2,3)              112.4885         estimate D2E/DX2                !
 ! A8    A(1,2,7)              110.284          estimate D2E/DX2                !
 ! A9    A(1,2,8)              110.2044         estimate D2E/DX2                !
 ! A10   A(3,2,7)              110.6163         estimate D2E/DX2                !
 ! A11   A(3,2,8)              105.7643         estimate D2E/DX2                !
 ! A12   A(7,2,8)              107.2643         estimate D2E/DX2                !
 ! A13   A(2,3,9)              109.3763         estimate D2E/DX2                !
 ! D1    D(4,1,2,3)           -177.646          estimate D2E/DX2                !
 ! D2    D(4,1,2,7)             58.3475         estimate D2E/DX2                !
 ! D3    D(4,1,2,8)            -59.8923         estimate D2E/DX2                !
 ! D4    D(5,1,2,3)             62.6188         estimate D2E/DX2                !
 ! D5    D(5,1,2,7)            -61.3877         estimate D2E/DX2                !
 ! D6    D(5,1,2,8)           -179.6276         estimate D2E/DX2                !
 ! D7    D(6,1,2,3)            -57.235          estimate D2E/DX2                !
 ! D8    D(6,1,2,7)            178.7585         estimate D2E/DX2                !
 ! D9    D(6,1,2,8)             60.5186         estimate D2E/DX2                !
 ! D10   D(1,2,3,9)              0.0            Scan                            !
 ! D11   D(7,2,3,9)            123.8222         estimate D2E/DX2                !
 ! D12   D(8,2,3,9)           -120.3492         estimate D2E/DX2                !
 --------------------------------------------------------------------------------
 Trust Radius=3.00D-01 FncErr=1.00D-07 GrdErr=1.00D-07
 Number of optimizations in scan=   9
 Number of steps in this run=  43 maximum allowed number of steps= 100.
 GradGradGradGradGradGradGradGradGradGradGradGradGradGradGradGradGradGrad

                          Input orientation:                          
 ---------------------------------------------------------------------
 Center     Atomic      Atomic             Coordinates (Angstroms)
 Number     Number       Type             X           Y           Z
 ---------------------------------------------------------------------
      1          6           0       -1.209050   -0.236510   -0.019180
      2          6           0        0.089910    0.552930    0.044910
      3          8           0        1.222000   -0.262490   -0.110010
      4          1           0       -2.067380    0.423870    0.062070
      5          1           0       -1.267690   -0.957740    0.792470
      6          1           0       -1.276370   -0.778020   -0.956280
      7          1           0        0.145550    1.112980    0.976650
      8          1           0        0.131480    1.270430   -0.764030
      9          1           0        0.948070   -1.161680   -0.226249
 ---------------------------------------------------------------------
                    Distance matrix (angstroms):
                    1          2          3          4          5
     1  C    0.000000
     2  C    1.521388   0.000000
     3  O    2.432885   1.403758   0.000000
     4  H    1.086017   2.161215   3.364628   0.000000
     5  H    1.087376   2.164266   2.737955   1.755515   0.000000
     6  H    1.084399   2.154189   2.687712   1.762746   1.757982
     7  H    2.155863   1.088527   2.057059   2.491664   2.513773
     8  H    2.150044   1.082090   1.991688   2.496816   3.056977
     9  H    2.356265   1.936454   0.947149   3.419069   2.447238
                    6          7          8          9
     6  H    0.000000
     7  H    3.055153   0.000000
     8  H    2.493020   1.747843   0.000000
     9  H    2.372398   2.695382   2.621295   0.000000
 Symmetry turned off by external request.
 Stoichiometry    C2H6O
 Framework group  C1[X(C2H6O)]
 Deg. of freedom    21
 Full point group                 C1      NOp   1
 Rotational constants (GHZ):     34.5272659      9.5265046      8.2172687
 Standard basis: 6-31G(d) (6D, 7F)
 Integral buffers will be    131072 words long.
 Raffenetti 1 integral format.
 Two-electron integral symmetry is turned off.
    57 basis functions,   108 primitive gaussians,    57 cartesian basis functions
    13 alpha electrons       13 beta electrons
       nuclear repulsion energy        82.4497975323 Hartrees.
 NAtoms=    9 NActive=    9 NUniq=    9 SFac= 7.50D-01 NAtFMM=   80 NAOKFM=F Big=F
 One-electron integrals computed using PRISM.
 NBasis=    57 RedAO= T  NBF=    57
 NBsUse=    57 1.00D-06 NBFU=    57
 Harris functional with IExCor=  205 diagonalized for initial guess.
 ExpMin= 1.61D-01 ExpMax= 5.48D+03 ExpMxC= 8.25D+02 IAcc=1 IRadAn=         1 AccDes= 0.00D+00
 HarFok:  IExCor=  205 AccDes= 0.00D+00 IRadAn=         1 IDoV= 1
 ScaDFX=  1.000000  1.000000  1.000000  1.000000
 FoFCou: FMM=F IPFlag=           0 FMFlag=      100000 FMFlg1=           0
         NFxFlg=           0 DoJE=T BraDBF=F KetDBF=T FulRan=T
         Omega=  0.000000  0.000000  1.000000  0.000000  0.000000 ICntrl=     500 IOpCl=  0
         NMat0=    1 NMatS0=    1 NMatT0=    0 NMatD0=    1 NMtDS0=    0 NMtDT0=    0
         I1Cent=           4 NGrid=           0.
 Symmetry not used in FoFCou.
 Requested convergence on RMS density matrix=1.00D-08 within 128 cycles.
 Requested convergence on MAX density matrix=1.00D-06.
 Requested convergence on             energy=1.00D-06.
 No special actions if energy rises.
 Keep R1 ints in memory in canonical form, NReq=2215640.
 SCF Done:  E(RHF) =  -154.072273848     A.U. after   12 cycles
             Convg  =    0.1870D-08             -V/T =  2.0012

 **********************************************************************

            Population analysis using the SCF density.

 **********************************************************************

 Alpha  occ. eigenvalues --  -20.55021 -11.26973 -11.22380  -1.35914  -1.01550
 Alpha  occ. eigenvalues --   -0.85753  -0.65895  -0.64820  -0.62266  -0.53693
 Alpha  occ. eigenvalues --   -0.53330  -0.48114  -0.43216
 Alpha virt. eigenvalues --    0.22756   0.26794   0.29486   0.30408   0.31830
 Alpha virt. eigenvalues --    0.34419   0.39389   0.43723   0.72346   0.74114
 Alpha virt. eigenvalues --    0.81035   0.81755   0.90493   0.91335   1.10963
 Alpha virt. eigenvalues --    1.13042   1.14903   1.17923   1.18902   1.20578
 Alpha virt. eigenvalues --    1.23184   1.28973   1.29932   1.45349   1.58581
 Alpha virt. eigenvalues --    1.70393   1.72136   1.90415   2.04334   2.10360
 Alpha virt. eigenvalues --    2.22292   2.24047   2.43516   2.51736   2.54957
 Alpha virt. eigenvalues --    2.68408   2.75369   2.76208   2.80175   3.02004
 Alpha virt. eigenvalues --    3.20329   4.19073   4.59711   4.82544
          Condensed to atoms (all electrons):
              1          2          3          4          5          6
     1  C    5.168311   0.356223  -0.040694   0.381491   0.386359   0.386935
     2  C    0.356223   4.704718   0.226555  -0.031206  -0.036630  -0.038110
     3  O   -0.040694   0.226555   8.382271   0.003039  -0.000139   0.000177
     4  H    0.381491  -0.031206   0.003039   0.521315  -0.024309  -0.022963
     5  H    0.386359  -0.036630  -0.000139  -0.024309   0.541006  -0.033743
     6  H    0.386935  -0.038110   0.000177  -0.022963  -0.033743   0.541293
     7  H   -0.043226   0.400745  -0.040326  -0.000460  -0.005890   0.004938
     8  H   -0.043236   0.408921  -0.050137  -0.000881   0.004893  -0.006247
     9  H   -0.006884  -0.035082   0.268528   0.000315   0.001772   0.001896
              7          8          9
     1  C   -0.043226  -0.043236  -0.006884
     2  C    0.400745   0.408921  -0.035082
     3  O   -0.040326  -0.050137   0.268528
     4  H   -0.000460  -0.000881   0.000315
     5  H   -0.005890   0.004893   0.001772
     6  H    0.004938  -0.006247   0.001896
     7  H    0.579245  -0.049735   0.003337
     8  H   -0.049735   0.580124   0.003970
     9  H    0.003337   0.003970   0.321327
 Mulliken atomic charges:
              1
     1  C   -0.545280
     2  C    0.043866
     3  O   -0.749274
     4  H    0.173660
     5  H    0.166683
     6  H    0.165824
     7  H    0.151373
     8  H    0.152328
     9  H    0.440820
 Sum of Mulliken atomic charges =   0.00000
 Mulliken charges with hydrogens summed into heavy atoms:
              1
     1  C   -0.039113
     2  C    0.347567
     3  O   -0.308454
 Sum of Mulliken charges with hydrogens summed into heavy atoms =   0.00000
 Electronic spatial extent (au):  <R**2>=            191.7537
 Charge=              0.0000 electrons
 Dipole moment (field-independent basis, Debye):
    X=             -1.9232    Y=             -0.6531    Z=             -0.0224  Tot=              2.0312
 Quadrupole moment (field-independent basis, Debye-Ang):
   XX=            -23.4718   YY=            -17.1482   ZZ=            -19.9554
   XY=             -0.9277   XZ=             -0.0041   YZ=              0.5026
 Traceless Quadrupole moment (field-independent basis, Debye-Ang):
   XX=             -3.2800   YY=              3.0436   ZZ=              0.2364
   XY=             -0.9277   XZ=             -0.0041   YZ=              0.5026
 Octapole moment (field-independent basis, Debye-Ang**2):
  XXX=             -0.1520  YYY=             -3.9111  ZZZ=              1.5708  XYY=              4.2899
  XXY=              0.0205  XXZ=              0.8146  XZZ=              1.5081  YZZ=             -0.3893
  YYZ=             -0.0443  XYZ=              0.4192
 Hexadecapole moment (field-independent basis, Debye-Ang**3):
 XXXX=           -160.3754 YYYY=            -52.1135 ZZZZ=            -32.4104 XXXY=             -4.8106
 XXXZ=              1.7922 YYYX=             -5.7734 YYYZ=             -1.0476 ZZZX=              2.1758
 ZZZY=             -1.2701 XXYY=            -31.9998 XXZZ=            -31.9777 YYZZ=            -13.4832
 XXYZ=              0.0603 YYXZ=             -0.2611 ZZXY=             -0.0313
 N-N= 8.244979753233D+01 E-N=-5.265600773933D+02  KE= 1.538944568311D+02
 Calling FoFJK, ICntrl=      2127 FMM=F ISym2X=0 I1Cent= 0 IOpClX= 0 NMat=1 NMatS=1 NMatT=0.
 -------------------------------------------------------------------
 Center     Atomic                   Forces (Hartrees/Bohr)
 Number     Number              X              Y              Z
 -------------------------------------------------------------------
      1        6          -0.000019890    0.001518459    0.003007816
      2        6          -0.000926807    0.002668897   -0.006369069
      3        8           0.000758582   -0.005329444    0.005631230
      4        1           0.000369574   -0.000825947   -0.000939700
      5        1           0.000529270    0.000509481    0.000070831
      6        1          -0.001301075    0.000050875   -0.001683016
      7        1           0.002846544   -0.004135780   -0.000568432
      8        1          -0.004856563    0.004419949   -0.000082702
      9        1           0.002600365    0.001123509    0.000933041
 -------------------------------------------------------------------
 Cartesian Forces:  Max     0.006369069 RMS     0.002754915

 GradGradGradGradGradGradGradGradGradGradGradGradGradGradGradGradGradGrad
 Berny optimization.
 Internal  Forces:  Max     0.005125375 RMS     0.002310850
 Search for a local minimum.
 Step number   1 out of a maximum of   43 on scan point     1 out of     9
 All quantities printed in internal units (Hartrees-Bohrs-Radians)
 Mixed Optimization -- RFO/linear search
 Second derivative matrix not updated -- first step.
     Eigenvalues ---    0.00483   0.04097   0.05629   0.05661   0.05829
     Eigenvalues ---    0.11772   0.12377   0.16000   0.16000   0.16000
     Eigenvalues ---    0.16000   0.22021   0.30233   0.34983   0.35118
     Eigenvalues ---    0.35277   0.35468   0.35743   0.45003   0.58332
     Eigenvalues --- 1000.000001000.000001000.000001000.000001000.00000
     Eigenvalues --- 1000.000001000.000001000.000001000.000001000.00000
     Eigenvalues --- 1000.000001000.000001000.00000
 RFO step:  Lambda=-1.81996588D-03 EMin= 4.83030953D-03
 Linear search not attempted -- first point.
 Iteration  1 RMS(Cart)=  0.03605172 RMS(Int)=  0.00081181
 Iteration  2 RMS(Cart)=  0.00087257 RMS(Int)=  0.00039800
 Iteration  3 RMS(Cart)=  0.00000028 RMS(Int)=  0.00039800
 Iteration  1 RMS(Cart)=  0.00003998 RMS(Int)=  0.00003952
 Iteration  2 RMS(Cart)=  0.00001964 RMS(Int)=  0.00004419
 Iteration  3 RMS(Cart)=  0.00000965 RMS(Int)=  0.00004930
 Iteration  4 RMS(Cart)=  0.00000474 RMS(Int)=  0.00005229
 Iteration  5 RMS(Cart)=  0.00000233 RMS(Int)=  0.00005385
 Iteration  6 RMS(Cart)=  0.00000114 RMS(Int)=  0.00005464
 Iteration  7 RMS(Cart)=  0.00000056 RMS(Int)=  0.00005503
 Variable       Old X    -DE/DX   Delta X   Delta X   Delta X     New X
                                 (Linear)    (Quad)   (Total)
    R1        2.87501  -0.00031   0.00000  -0.00102  -0.00102   2.87399
    R2        2.05228  -0.00086   0.00000  -0.00244  -0.00244   2.04984
    R3        2.05484  -0.00031   0.00000  -0.00089  -0.00089   2.05395
    R4        2.04922   0.00151   0.00000   0.00423   0.00423   2.05345
    R5        2.65272   0.00443   0.00000   0.00980   0.00980   2.66252
    R6        2.05702  -0.00247   0.00000  -0.00702  -0.00702   2.05000
    R7        2.04485   0.00281   0.00000   0.00781   0.00781   2.05266
    R8        1.78985  -0.00193   0.00000  -0.00330  -0.00330   1.78655
    A1        1.93491   0.00053   0.00000   0.00149   0.00149   1.93640
    A2        1.93775  -0.00097   0.00000  -0.00400  -0.00400   1.93374
    A3        1.92679   0.00094   0.00000   0.00558   0.00559   1.93238
    A4        1.88058   0.00029   0.00000   0.00228   0.00228   1.88286
    A5        1.89572  -0.00122   0.00000  -0.01142  -0.01141   1.88431
    A6        1.88649   0.00040   0.00000   0.00590   0.00590   1.89238
    A7        1.96329   0.00183   0.00000   0.00882   0.00798   1.97127
    A8        1.92482   0.00092   0.00000  -0.01292  -0.01342   1.91140
    A9        1.92343  -0.00340   0.00000  -0.00513  -0.00623   1.91720
   A10        1.93062  -0.00494   0.00000  -0.05871  -0.05884   1.87178
   A11        1.84594   0.00513   0.00000   0.07010   0.06988   1.91582
   A12        1.87212   0.00050   0.00000   0.00064   0.00125   1.87336
   A13        1.90898   0.00376   0.00000   0.02325   0.02325   1.93223
    D1       -3.10051  -0.00312   0.00000  -0.06406  -0.06395   3.11873
    D2        1.01836   0.00131   0.00000   0.01571   0.01566   1.03401
    D3       -1.04532   0.00222   0.00000   0.02605   0.02600  -1.01932
    D4        1.09290  -0.00319   0.00000  -0.06527  -0.06516   1.02774
    D5       -1.07142   0.00124   0.00000   0.01450   0.01445  -1.05697
    D6       -3.13509   0.00215   0.00000   0.02484   0.02479  -3.11030
    D7       -0.99894  -0.00368   0.00000  -0.07372  -0.07362  -1.07256
    D8        3.11992   0.00075   0.00000   0.00605   0.00599   3.12591
    D9        1.05625   0.00166   0.00000   0.01639   0.01634   1.07258
   D10        0.00000  -0.00003   0.00000   0.00000   0.00000   0.00000
   D11        2.16110  -0.00121   0.00000  -0.05449  -0.05367   2.10743
   D12       -2.10049  -0.00022   0.00000  -0.04396  -0.04542  -2.14591
         Item               Value     Threshold  Converged?
 Maximum Force            0.005125     0.000450     NO 
 RMS     Force            0.002347     0.000300     NO 
 Maximum Displacement     0.101058     0.001800     NO 
 RMS     Displacement     0.035920     0.001200     NO 
 Predicted change in Energy=-9.376157D-04
 GradGradGradGradGradGradGradGradGradGradGradGradGradGradGradGradGradGrad

                          Input orientation:                          
 ---------------------------------------------------------------------
 Center     Atomic      Atomic             Coordinates (Angstroms)
 Number     Number       Type             X           Y           Z
 ---------------------------------------------------------------------
      1          6           0       -1.212517   -0.232221   -0.027369
      2          6           0        0.089300    0.552807    0.017235
      3          8           0        1.229535   -0.267797   -0.090444
      4          1           0       -2.066939    0.427223    0.080931
      5          1           0       -1.250528   -0.962457    0.776792
      6          1           0       -1.312408   -0.757537   -0.973335
      7          1           0        0.161536    1.081411    0.961786
      8          1           0        0.097480    1.298577   -0.772474
      9          1           0        0.981061   -1.176238   -0.172772
 ---------------------------------------------------------------------
                    Distance matrix (angstroms):
                    1          2          3          4          5
     1  C    0.000000
     2  C    1.520850   0.000000
     3  O    2.443126   1.408944   0.000000
     4  H    1.084727   2.160832   3.373302   0.000000
     5  H    1.086906   2.160577   2.717603   1.755552   0.000000
     6  H    1.086640   2.159402   2.735108   1.756260   1.763169
     7  H    2.142913   1.084812   2.016971   2.483942   2.491093
     8  H    2.148166   1.086223   2.049449   2.484406   3.054444
     9  H    2.392508   1.954722   0.945401   3.453369   2.434618
                    6          7          8          9
     6  H    0.000000
     7  H    3.049415   0.000000
     8  H    2.501147   1.748978   0.000000
     9  H    2.464997   2.656280   2.695379   0.000000
 Symmetry turned off by external request.
 Stoichiometry    C2H6O
 Framework group  C1[X(C2H6O)]
 Deg. of freedom    21
 Full point group                 C1      NOp   1
 Rotational constants (GHZ):     34.6350183      9.4409376      8.1633926
 Standard basis: 6-31G(d) (6D, 7F)
 Integral buffers will be    131072 words long.
 Raffenetti 1 integral format.
 Two-electron integral symmetry is turned off.
    57 basis functions,   108 primitive gaussians,    57 cartesian basis functions
    13 alpha electrons       13 beta electrons
       nuclear repulsion energy        82.2773505928 Hartrees.
 NAtoms=    9 NActive=    9 NUniq=    9 SFac= 7.50D-01 NAtFMM=   80 NAOKFM=F Big=F
 One-electron integrals computed using PRISM.
 NBasis=    57 RedAO= T  NBF=    57
 NBsUse=    57 1.00D-06 NBFU=    57
 Initial guess read from the read-write file.
 B after Tr=     0.000000    0.000000    0.000000
         Rot=    1.000000    0.000000    0.000000    0.000000 Ang=   0.00 deg.
 Harris functional with IExCor=  205 diagonalized for initial guess.
 ExpMin= 1.61D-01 ExpMax= 5.48D+03 ExpMxC= 8.25D+02 IAcc=1 IRadAn=         1 AccDes= 0.00D+00
 HarFok:  IExCor=  205 AccDes= 0.00D+00 IRadAn=         1 IDoV= 1
 ScaDFX=  1.000000  1.000000  1.000000  1.000000
 FoFCou: FMM=F IPFlag=           0 FMFlag=      100000 FMFlg1=           0
         NFxFlg=           0 DoJE=T BraDBF=F KetDBF=T FulRan=T
         Omega=  0.000000  0.000000  1.000000  0.000000  0.000000 ICntrl=     500 IOpCl=  0
         NMat0=    1 NMatS0=    1 NMatT0=    0 NMatD0=    1 NMtDS0=    0 NMtDT0=    0
         I1Cent=           4 NGrid=           0.
 Symmetry not used in FoFCou.
 Requested convergence on RMS density matrix=1.00D-08 within 128 cycles.
 Requested convergence on MAX density matrix=1.00D-06.
 Requested convergence on             energy=1.00D-06.
 No special actions if energy rises.
 Keep R1 ints in memory in canonical form, NReq=2215640.
 SCF Done:  E(RHF) =  -154.072717561     A.U. after   11 cycles
             Convg  =    0.3125D-08             -V/T =  2.0013
 Calling FoFJK, ICntrl=      2127 FMM=F ISym2X=0 I1Cent= 0 IOpClX= 0 NMat=1 NMatS=1 NMatT=0.
 -------------------------------------------------------------------
 Center     Atomic                   Forces (Hartrees/Bohr)
 Number     Number              X              Y              Z
 -------------------------------------------------------------------
      1        6           0.000470409   -0.000791827   -0.000849742
      2        6          -0.000282551   -0.001535099    0.005489636
      3        8          -0.000544212    0.002372000   -0.003090737
      4        1           0.000048210    0.000319144   -0.000097727
      5        1           0.000020965    0.000120614   -0.000175337
      6        1          -0.000331071   -0.000226892    0.000051913
      7        1          -0.000986496    0.001672766   -0.000225060
      8        1           0.002586464   -0.002235598   -0.000726195
      9        1          -0.000981720    0.000304891   -0.000376752
 -------------------------------------------------------------------
 Cartesian Forces:  Max     0.005489636 RMS     0.001577351

 GradGradGradGradGradGradGradGradGradGradGradGradGradGradGradGradGradGrad
 Berny optimization.
 Using GEDIIS/GDIIS optimizer.
 Internal  Forces:  Max     0.003069881 RMS     0.001122659
 Search for a local minimum.
 Step number   2 out of a maximum of   43 on scan point     1 out of     9
 All quantities printed in internal units (Hartrees-Bohrs-Radians)
 Mixed Optimization -- RFO/linear search
 Update second derivatives using D2CorX and points    1    2
 DE= -4.44D-04 DEPred=-9.38D-04 R= 4.73D-01
 Trust test= 4.73D-01 RLast= 1.74D-01 DXMaxT set to 3.00D-01
 Use linear search instead of GDIIS.
     Eigenvalues ---    0.00484   0.05283   0.05612   0.05638   0.05977
     Eigenvalues ---    0.11792   0.13857   0.15858   0.16000   0.16000
     Eigenvalues ---    0.16789   0.22015   0.30236   0.34963   0.35117
     Eigenvalues ---    0.35271   0.35419   0.35843   0.45761   0.58259
     Eigenvalues --- 1000.000001000.000001000.000001000.000001000.00000
     Eigenvalues --- 1000.000001000.000001000.000001000.000001000.00000
     Eigenvalues --- 1000.000001000.000001000.00000
 RFO step:  Lambda=-1.76167109D-05 EMin= 4.84257219D-03
 Quartic linear search produced a step of -0.33879.
 Iteration  1 RMS(Cart)=  0.01173348 RMS(Int)=  0.00011926
 Iteration  2 RMS(Cart)=  0.00010959 RMS(Int)=  0.00008649
 Iteration  3 RMS(Cart)=  0.00000001 RMS(Int)=  0.00008649
 Iteration  1 RMS(Cart)=  0.00001085 RMS(Int)=  0.00001073
 Iteration  2 RMS(Cart)=  0.00000534 RMS(Int)=  0.00001199
 Iteration  3 RMS(Cart)=  0.00000262 RMS(Int)=  0.00001338
 Iteration  4 RMS(Cart)=  0.00000129 RMS(Int)=  0.00001419
 Iteration  5 RMS(Cart)=  0.00000063 RMS(Int)=  0.00001462
 Variable       Old X    -DE/DX   Delta X   Delta X   Delta X     New X
                                 (Linear)    (Quad)   (Total)
    R1        2.87399   0.00015   0.00034  -0.00002   0.00032   2.87431
    R2        2.04984   0.00015   0.00083  -0.00058   0.00025   2.05009
    R3        2.05395  -0.00021   0.00030  -0.00071  -0.00041   2.05355
    R4        2.05345   0.00009  -0.00143   0.00166   0.00022   2.05367
    R5        2.66252  -0.00253  -0.00332  -0.00030  -0.00362   2.65890
    R6        2.05000   0.00055   0.00238  -0.00141   0.00097   2.05097
    R7        2.05266  -0.00099  -0.00265   0.00090  -0.00175   2.05092
    R8        1.78655   0.00000   0.00112  -0.00116  -0.00004   1.78651
    A1        1.93640  -0.00050  -0.00050  -0.00182  -0.00233   1.93407
    A2        1.93374  -0.00002   0.00136  -0.00142  -0.00006   1.93368
    A3        1.93238   0.00063  -0.00189   0.00479   0.00290   1.93527
    A4        1.88286   0.00020  -0.00077   0.00121   0.00044   1.88330
    A5        1.88431  -0.00009   0.00387  -0.00445  -0.00058   1.88372
    A6        1.89238  -0.00024  -0.00200   0.00160  -0.00040   1.89199
    A7        1.97127   0.00008  -0.00270   0.00275   0.00021   1.97148
    A8        1.91140  -0.00014   0.00455   0.00264   0.00726   1.91866
    A9        1.91720   0.00135   0.00211  -0.00202   0.00035   1.91755
   A10        1.87178   0.00186   0.01993  -0.00229   0.01764   1.88942
   A11        1.91582  -0.00307  -0.02368  -0.00249  -0.02612   1.88970
   A12        1.87336  -0.00009  -0.00042   0.00139   0.00083   1.87420
   A13        1.93223  -0.00180  -0.00788   0.00069  -0.00718   1.92504
    D1        3.11873   0.00175   0.02167   0.00216   0.02381  -3.14065
    D2        1.03401  -0.00056  -0.00530   0.00146  -0.00384   1.03018
    D3       -1.01932  -0.00117  -0.00881  -0.00060  -0.00940  -1.02871
    D4        1.02774   0.00184   0.02208   0.00277   0.02483   1.05257
    D5       -1.05697  -0.00047  -0.00489   0.00207  -0.00282  -1.05979
    D6       -3.11030  -0.00108  -0.00840   0.00001  -0.00838  -3.11868
    D7       -1.07256   0.00173   0.02494  -0.00147   0.02345  -1.04910
    D8        3.12591  -0.00058  -0.00203  -0.00217  -0.00419   3.12172
    D9        1.07258  -0.00119  -0.00553  -0.00423  -0.00975   1.06283
   D10        0.00000  -0.00029   0.00000   0.00000   0.00000   0.00000
   D11        2.10743   0.00084   0.01818   0.00343   0.02144   2.12888
   D12       -2.14591   0.00017   0.01539   0.00251   0.01823  -2.12767
         Item               Value     Threshold  Converged?
 Maximum Force            0.003076     0.000450     NO 
 RMS     Force            0.001138     0.000300     NO 
 Maximum Displacement     0.035344     0.001800     NO 
 RMS     Displacement     0.011768     0.001200     NO 
 Predicted change in Energy=-1.610464D-04
 GradGradGradGradGradGradGradGradGradGradGradGradGradGradGradGradGradGrad

                          Input orientation:                          
 ---------------------------------------------------------------------
 Center     Atomic      Atomic             Coordinates (Angstroms)
 Number     Number       Type             X           Y           Z
 ---------------------------------------------------------------------
      1          6           0       -1.212074   -0.234256   -0.024858
      2          6           0        0.089048    0.551733    0.028115
      3          8           0        1.228581   -0.264241   -0.095921
      4          1           0       -2.066322    0.427288    0.072808
      5          1           0       -1.257482   -0.959990    0.782698
      6          1           0       -1.305994   -0.764833   -0.968631
      7          1           0        0.157594    1.090914    0.967540
      8          1           0        0.108540    1.287006   -0.769925
      9          1           0        0.974629   -1.169849   -0.191475
 ---------------------------------------------------------------------
                    Distance matrix (angstroms):
                    1          2          3          4          5
     1  C    0.000000
     2  C    1.521020   0.000000
     3  O    2.441873   1.407031   0.000000
     4  H    1.084859   2.159422   3.370915   0.000000
     5  H    1.086691   2.160519   2.727004   1.755763   0.000000
     6  H    1.086757   2.161710   2.726956   1.756088   1.762836
     7  H    2.148701   1.085327   2.028401   2.487317   2.498562
     8  H    2.147879   1.085299   2.028581   2.485827   3.053792
     9  H    2.384274   1.948414   0.945382   3.445007   2.444458
                    6          7          8          9
     6  H    0.000000
     7  H    3.055265   0.000000
     8  H    2.500087   1.749184   0.000000
     9  H    2.443205   2.668691   2.668492   0.000000
 Symmetry turned off by external request.
 Stoichiometry    C2H6O
 Framework group  C1[X(C2H6O)]
 Deg. of freedom    21
 Full point group                 C1      NOp   1
 Rotational constants (GHZ):     34.6759208      9.4511136      8.1734454
 Standard basis: 6-31G(d) (6D, 7F)
 Integral buffers will be    131072 words long.
 Raffenetti 1 integral format.
 Two-electron integral symmetry is turned off.
    57 basis functions,   108 primitive gaussians,    57 cartesian basis functions
    13 alpha electrons       13 beta electrons
       nuclear repulsion energy        82.3231631573 Hartrees.
 NAtoms=    9 NActive=    9 NUniq=    9 SFac= 7.50D-01 NAtFMM=   80 NAOKFM=F Big=F
 One-electron integrals computed using PRISM.
 NBasis=    57 RedAO= T  NBF=    57
 NBsUse=    57 1.00D-06 NBFU=    57
 Initial guess read from the read-write file.
 B after Tr=     0.000000    0.000000    0.000000
         Rot=    1.000000    0.000000    0.000000    0.000000 Ang=   0.00 deg.
 Harris functional with IExCor=  205 diagonalized for initial guess.
 ExpMin= 1.61D-01 ExpMax= 5.48D+03 ExpMxC= 8.25D+02 IAcc=1 IRadAn=         1 AccDes= 0.00D+00
 HarFok:  IExCor=  205 AccDes= 0.00D+00 IRadAn=         1 IDoV= 1
 ScaDFX=  1.000000  1.000000  1.000000  1.000000
 FoFCou: FMM=F IPFlag=           0 FMFlag=      100000 FMFlg1=           0
         NFxFlg=           0 DoJE=T BraDBF=F KetDBF=T FulRan=T
         Omega=  0.000000  0.000000  1.000000  0.000000  0.000000 ICntrl=     500 IOpCl=  0
         NMat0=    1 NMatS0=    1 NMatT0=    0 NMatD0=    1 NMtDS0=    0 NMtDT0=    0
         I1Cent=           4 NGrid=           0.
 Symmetry not used in FoFCou.
 Requested convergence on RMS density matrix=1.00D-08 within 128 cycles.
 Requested convergence on MAX density matrix=1.00D-06.
 Requested convergence on             energy=1.00D-06.
 No special actions if energy rises.
 Keep R1 ints in memory in canonical form, NReq=2215640.
 SCF Done:  E(RHF) =  -154.072880204     A.U. after   10 cycles
             Convg  =    0.4170D-08             -V/T =  2.0012
 Calling FoFJK, ICntrl=      2127 FMM=F ISym2X=0 I1Cent= 0 IOpClX= 0 NMat=1 NMatS=1 NMatT=0.
 -------------------------------------------------------------------
 Center     Atomic                   Forces (Hartrees/Bohr)
 Number     Number              X              Y              Z
 -------------------------------------------------------------------
      1        6           0.000243610   -0.000099169    0.000208822
      2        6           0.000046528    0.000078142   -0.000184348
      3        8          -0.000134164    0.000065697    0.000019882
      4        1          -0.000037288    0.000091295   -0.000014475
      5        1          -0.000059967   -0.000053367   -0.000048757
      6        1           0.000057706    0.000076355    0.000045886
      7        1          -0.000123167   -0.000070183   -0.000006095
      8        1           0.000014547   -0.000006931   -0.000010211
      9        1          -0.000007804   -0.000081838   -0.000010705
 -------------------------------------------------------------------
 Cartesian Forces:  Max     0.000243610 RMS     0.000093322

 GradGradGradGradGradGradGradGradGradGradGradGradGradGradGradGradGradGrad
 Berny optimization.
 Using GEDIIS/GDIIS optimizer.
 Internal  Forces:  Max     0.000189037 RMS     0.000075315
 Search for a local minimum.
 Step number   3 out of a maximum of   43 on scan point     1 out of     9
 All quantities printed in internal units (Hartrees-Bohrs-Radians)
 Mixed Optimization -- En-DIIS/RFO-DIIS
 Update second derivatives using D2CorX and points    1    2    3
 DE= -1.63D-04 DEPred=-1.61D-04 R= 1.01D+00
 SS=  1.41D+00  RLast= 6.29D-02 DXNew= 5.0454D-01 1.8855D-01
 Trust test= 1.01D+00 RLast= 6.29D-02 DXMaxT set to 3.00D-01
 Use linear search instead of GDIIS.
     Eigenvalues ---    0.00484   0.05262   0.05587   0.05664   0.06014
     Eigenvalues ---    0.11906   0.13570   0.15918   0.15995   0.16000
     Eigenvalues ---    0.16853   0.22052   0.30270   0.34961   0.35122
     Eigenvalues ---    0.35275   0.35442   0.35854   0.45590   0.58285
     Eigenvalues --- 1000.000001000.000001000.000001000.000001000.00000
     Eigenvalues --- 1000.000001000.000001000.000001000.000001000.00000
     Eigenvalues --- 1000.000001000.000001000.00000
 RFO step:  Lambda=-1.13331016D-06 EMin= 4.84400713D-03
 Quartic linear search produced a step of -0.00652.
 Iteration  1 RMS(Cart)=  0.00087559 RMS(Int)=  0.00000063
 Iteration  2 RMS(Cart)=  0.00000051 RMS(Int)=  0.00000039
 Iteration  1 RMS(Cart)=  0.00000031 RMS(Int)=  0.00000031
 Variable       Old X    -DE/DX   Delta X   Delta X   Delta X     New X
                                 (Linear)    (Quad)   (Total)
    R1        2.87431  -0.00019   0.00000  -0.00061  -0.00062   2.87370
    R2        2.05009   0.00008   0.00000   0.00024   0.00024   2.05032
    R3        2.05355   0.00000   0.00000   0.00000   0.00000   2.05355
    R4        2.05367  -0.00008   0.00000  -0.00023  -0.00023   2.05344
    R5        2.65890  -0.00011   0.00002  -0.00028  -0.00026   2.65864
    R6        2.05097  -0.00005  -0.00001  -0.00012  -0.00013   2.05084
    R7        2.05092   0.00000   0.00001  -0.00002   0.00000   2.05091
    R8        1.78651   0.00008   0.00000   0.00014   0.00014   1.78665
    A1        1.93407  -0.00007   0.00002  -0.00051  -0.00049   1.93358
    A2        1.93368   0.00016   0.00000   0.00123   0.00123   1.93491
    A3        1.93527  -0.00012  -0.00002  -0.00089  -0.00091   1.93437
    A4        1.88330   0.00000   0.00000   0.00035   0.00034   1.88364
    A5        1.88372   0.00005   0.00000  -0.00011  -0.00010   1.88362
    A6        1.89199  -0.00002   0.00000  -0.00007  -0.00007   1.89192
    A7        1.97148  -0.00012   0.00000  -0.00060  -0.00061   1.97088
    A8        1.91866  -0.00012  -0.00005  -0.00097  -0.00102   1.91764
    A9        1.91755   0.00007   0.00000   0.00047   0.00047   1.91802
   A10        1.88942   0.00011  -0.00011   0.00074   0.00063   1.89004
   A11        1.88970   0.00003   0.00017  -0.00002   0.00015   1.88985
   A12        1.87420   0.00003  -0.00001   0.00046   0.00045   1.87465
   A13        1.92504   0.00003   0.00005   0.00007   0.00011   1.92516
    D1       -3.14065   0.00002  -0.00016  -0.00058  -0.00074  -3.14138
    D2        1.03018   0.00004   0.00003  -0.00043  -0.00040   1.02977
    D3       -1.02871   0.00003   0.00006  -0.00068  -0.00062  -1.02934
    D4        1.05257  -0.00003  -0.00016  -0.00149  -0.00165   1.05092
    D5       -1.05979  -0.00001   0.00002  -0.00134  -0.00132  -1.06111
    D6       -3.11868  -0.00002   0.00005  -0.00159  -0.00154  -3.12022
    D7       -1.04910  -0.00004  -0.00015  -0.00163  -0.00178  -1.05089
    D8        3.12172  -0.00002   0.00003  -0.00148  -0.00145   3.12027
    D9        1.06283  -0.00003   0.00006  -0.00174  -0.00167   1.06116
   D10        0.00000   0.00006   0.00000   0.00000   0.00000   0.00000
   D11        2.12888  -0.00009  -0.00014  -0.00111  -0.00125   2.12763
   D12       -2.12767   0.00003  -0.00012  -0.00018  -0.00030  -2.12797
         Item               Value     Threshold  Converged?
 Maximum Force            0.000189     0.000450     YES
 RMS     Force            0.000075     0.000300     YES
 Maximum Displacement     0.002046     0.001800     NO 
 RMS     Displacement     0.000876     0.001200     YES
 Predicted change in Energy=-5.741202D-07
 GradGradGradGradGradGradGradGradGradGradGradGradGradGradGradGradGradGrad

                          Input orientation:                          
 ---------------------------------------------------------------------
 Center     Atomic      Atomic             Coordinates (Angstroms)
 Number     Number       Type             X           Y           Z
 ---------------------------------------------------------------------
      1          6           0       -1.211594   -0.234321   -0.024451
      2          6           0        0.089017    0.551934    0.027754
      3          8           0        1.228171   -0.264390   -0.095912
      4          1           0       -2.065778    0.427447    0.073653
      5          1           0       -1.257137   -0.961031    0.782221
      6          1           0       -1.305451   -0.763751   -0.968734
      7          1           0        0.156704    1.091102    0.967171
      8          1           0        0.108575    1.286869   -0.770593
      9          1           0        0.974013   -1.170091   -0.190759
 ---------------------------------------------------------------------
                    Distance matrix (angstroms):
                    1          2          3          4          5
     1  C    0.000000
     2  C    1.520694   0.000000
     3  O    2.440997   1.406894   0.000000
     4  H    1.084984   2.158876   3.370088   0.000000
     5  H    1.086692   2.161114   2.726386   1.756086   0.000000
     6  H    1.086636   2.160684   2.725880   1.756024   1.762696
     7  H    2.147627   1.085260   2.028681   2.485607   2.498880
     8  H    2.147928   1.085297   2.028569   2.485794   3.054415
     9  H    2.383318   1.948419   0.945456   3.444179   2.443037
                    6          7          8          9
     6  H    0.000000
     7  H    3.053868   0.000000
     8  H    2.498754   1.749419   0.000000
     9  H    2.442604   2.668668   2.668678   0.000000
 Symmetry turned off by external request.
 Stoichiometry    C2H6O
 Framework group  C1[X(C2H6O)]
 Deg. of freedom    21
 Full point group                 C1      NOp   1
 Rotational constants (GHZ):     34.6664902      9.4573555      8.1776332
 Standard basis: 6-31G(d) (6D, 7F)
 Integral buffers will be    131072 words long.
 Raffenetti 1 integral format.
 Two-electron integral symmetry is turned off.
    57 basis functions,   108 primitive gaussians,    57 cartesian basis functions
    13 alpha electrons       13 beta electrons
       nuclear repulsion energy        82.3344725340 Hartrees.
 NAtoms=    9 NActive=    9 NUniq=    9 SFac= 7.50D-01 NAtFMM=   80 NAOKFM=F Big=F
 One-electron integrals computed using PRISM.
 NBasis=    57 RedAO= T  NBF=    57
 NBsUse=    57 1.00D-06 NBFU=    57
 Initial guess read from the read-write file.
 B after Tr=     0.000000    0.000000    0.000000
         Rot=    1.000000    0.000000    0.000000    0.000000 Ang=   0.00 deg.
 Requested convergence on RMS density matrix=1.00D-08 within 128 cycles.
 Requested convergence on MAX density matrix=1.00D-06.
 Requested convergence on             energy=1.00D-06.
 No special actions if energy rises.
 Keep R1 ints in memory in canonical form, NReq=2215640.
 SCF Done:  E(RHF) =  -154.072880608     A.U. after    8 cycles
             Convg  =    0.3962D-08             -V/T =  2.0012
 Calling FoFJK, ICntrl=      2127 FMM=F ISym2X=0 I1Cent= 0 IOpClX= 0 NMat=1 NMatS=1 NMatT=0.
 -------------------------------------------------------------------
 Center     Atomic                   Forces (Hartrees/Bohr)
 Number     Number              X              Y              Z
 -------------------------------------------------------------------
      1        6          -0.000040998    0.000025630   -0.000039014
      2        6           0.000032448   -0.000052790    0.000027441
      3        8           0.000019284    0.000016473    0.000008555
      4        1          -0.000020216   -0.000014289    0.000001996
      5        1           0.000019099    0.000026580   -0.000007379
      6        1          -0.000030540   -0.000023046   -0.000015215
      7        1           0.000035706    0.000016958    0.000008855
      8        1          -0.000019074   -0.000012067    0.000010973
      9        1           0.000004290    0.000016551    0.000003788
 -------------------------------------------------------------------
 Cartesian Forces:  Max     0.000052790 RMS     0.000023715

 GradGradGradGradGradGradGradGradGradGradGradGradGradGradGradGradGradGrad
 Berny optimization.
 Using GEDIIS/GDIIS optimizer.
 Internal  Forces:  Max     0.000071117 RMS     0.000026810
 Search for a local minimum.
 Step number   4 out of a maximum of   43 on scan point     1 out of     9
 All quantities printed in internal units (Hartrees-Bohrs-Radians)
 Mixed Optimization -- En-DIIS/RFO-DIIS
 Swaping is turned off.
 Update second derivatives using D2CorX and points    1    2    3    4
 DE= -4.04D-07 DEPred=-5.74D-07 R= 7.03D-01
 Trust test= 7.03D-01 RLast= 4.82D-03 DXMaxT set to 3.00D-01
     Eigenvalues ---    0.00479   0.05283   0.05600   0.05811   0.06011
     Eigenvalues ---    0.11994   0.14005   0.15921   0.15964   0.16781
     Eigenvalues ---    0.17373   0.23817   0.31473   0.34901   0.35015
     Eigenvalues ---    0.35231   0.35646   0.36375   0.45305   0.58387
     Eigenvalues --- 1000.000001000.000001000.000001000.000001000.00000
     Eigenvalues --- 1000.000001000.000001000.000001000.000001000.00000
     Eigenvalues --- 1000.000001000.000001000.00000
 En-DIIS/RFO-DIIS IScMMF=        0 using points:     4    3
 RFO step:  Lambda=-4.57742423D-08.
 DIIS coeffs:      0.77123      0.22877
 Iteration  1 RMS(Cart)=  0.00019775 RMS(Int)=  0.00000004
 Iteration  2 RMS(Cart)=  0.00000002 RMS(Int)=  0.00000004
 Iteration  1 RMS(Cart)=  0.00000019 RMS(Int)=  0.00000019
 Variable       Old X    -DE/DX   Delta X   Delta X   Delta X     New X
                                  (DIIS)     (GDIIS)  (Total)
    R1        2.87370   0.00006   0.00014  -0.00001   0.00013   2.87383
    R2        2.05032   0.00001  -0.00005   0.00007   0.00002   2.05034
    R3        2.05355  -0.00002   0.00000  -0.00005  -0.00005   2.05350
    R4        2.05344   0.00003   0.00005   0.00000   0.00006   2.05350
    R5        2.65864   0.00000   0.00006  -0.00006   0.00000   2.65864
    R6        2.05084   0.00002   0.00003   0.00001   0.00004   2.05088
    R7        2.05091  -0.00002   0.00000  -0.00004  -0.00003   2.05088
    R8        1.78665  -0.00002  -0.00003   0.00001  -0.00002   1.78663
    A1        1.93358   0.00003   0.00011   0.00004   0.00015   1.93373
    A2        1.93491  -0.00005  -0.00028   0.00002  -0.00026   1.93465
    A3        1.93437   0.00005   0.00021   0.00004   0.00025   1.93462
    A4        1.88364   0.00000  -0.00008   0.00001  -0.00007   1.88357
    A5        1.88362  -0.00003   0.00002  -0.00008  -0.00006   1.88356
    A6        1.89192   0.00000   0.00002  -0.00004  -0.00002   1.89190
    A7        1.97088   0.00007   0.00014   0.00012   0.00026   1.97114
    A8        1.91764   0.00003   0.00023  -0.00007   0.00016   1.91780
    A9        1.91802  -0.00004  -0.00011  -0.00009  -0.00020   1.91782
   A10        1.89004  -0.00005  -0.00014  -0.00004  -0.00018   1.88986
   A11        1.88985  -0.00001  -0.00003   0.00005   0.00001   1.88986
   A12        1.87465   0.00000  -0.00010   0.00004  -0.00007   1.87458
   A13        1.92516   0.00000  -0.00003   0.00003   0.00000   1.92516
    D1       -3.14138  -0.00001   0.00017  -0.00028  -0.00011  -3.14150
    D2        1.02977  -0.00001   0.00009  -0.00026  -0.00017   1.02960
    D3       -1.02934   0.00000   0.00014  -0.00021  -0.00007  -1.02940
    D4        1.05092   0.00000   0.00038  -0.00033   0.00004   1.05097
    D5       -1.06111   0.00000   0.00030  -0.00032  -0.00001  -1.06112
    D6       -3.12022   0.00001   0.00035  -0.00026   0.00009  -3.12013
    D7       -1.05089   0.00001   0.00041  -0.00033   0.00008  -1.05081
    D8        3.12027   0.00000   0.00033  -0.00031   0.00002   3.12029
    D9        1.06116   0.00001   0.00038  -0.00026   0.00012   1.06128
   D10        0.00000  -0.00002   0.00000   0.00000   0.00000   0.00000
   D11        2.12763   0.00002   0.00028  -0.00004   0.00025   2.12788
   D12       -2.12797  -0.00001   0.00007   0.00001   0.00008  -2.12790
         Item               Value     Threshold  Converged?
 Maximum Force            0.000071     0.000450     YES
 RMS     Force            0.000027     0.000300     YES
 Maximum Displacement     0.000614     0.001800     YES
 RMS     Displacement     0.000198     0.001200     YES
 Predicted change in Energy=-4.783067D-08
 Optimization completed.
    -- Stationary point found.
                           ----------------------------
                           !   Optimized Parameters   !
                           ! (Angstroms and Degrees)  !
 --------------------------                            --------------------------
 ! Name  Definition              Value          Derivative Info.                !
 --------------------------------------------------------------------------------
 ! R1    R(1,2)                  1.5207         -DE/DX =    0.0001              !
 ! R2    R(1,4)                  1.085          -DE/DX =    0.0                 !
 ! R3    R(1,5)                  1.0867         -DE/DX =    0.0                 !
 ! R4    R(1,6)                  1.0866         -DE/DX =    0.0                 !
 ! R5    R(2,3)                  1.4069         -DE/DX =    0.0                 !
 ! R6    R(2,7)                  1.0853         -DE/DX =    0.0                 !
 ! R7    R(2,8)                  1.0853         -DE/DX =    0.0                 !
 ! R8    R(3,9)                  0.9455         -DE/DX =    0.0                 !
 ! A1    A(2,1,4)              110.7859         -DE/DX =    0.0                 !
 ! A2    A(2,1,5)              110.8622         -DE/DX =    0.0                 !
 ! A3    A(2,1,6)              110.8312         -DE/DX =    0.0                 !
 ! A4    A(4,1,5)              107.9248         -DE/DX =    0.0                 !
 ! A5    A(4,1,6)              107.9234         -DE/DX =    0.0                 !
 ! A6    A(5,1,6)              108.399          -DE/DX =    0.0                 !
 ! A7    A(1,2,3)              112.9229         -DE/DX =    0.0001              !
 ! A8    A(1,2,7)              109.8725         -DE/DX =    0.0                 !
 ! A9    A(1,2,8)              109.8942         -DE/DX =    0.0                 !
 ! A10   A(3,2,7)              108.2915         -DE/DX =    0.0                 !
 ! A11   A(3,2,8)              108.2803         -DE/DX =    0.0                 !
 ! A12   A(7,2,8)              107.4095         -DE/DX =    0.0                 !
 ! A13   A(2,3,9)              110.3033         -DE/DX =    0.0                 !
 ! D1    D(4,1,2,3)           -179.9879         -DE/DX =    0.0                 !
 ! D2    D(4,1,2,7)             59.0017         -DE/DX =    0.0                 !
 ! D3    D(4,1,2,8)            -58.9766         -DE/DX =    0.0                 !
 ! D4    D(5,1,2,3)             60.2134         -DE/DX =    0.0                 !
 ! D5    D(5,1,2,7)            -60.7969         -DE/DX =    0.0                 !
 ! D6    D(5,1,2,8)           -178.7752         -DE/DX =    0.0                 !
 ! D7    D(6,1,2,3)            -60.2114         -DE/DX =    0.0                 !
 ! D8    D(6,1,2,7)            178.7783         -DE/DX =    0.0                 !
 ! D9    D(6,1,2,8)             60.8            -DE/DX =    0.0                 !
 ! D10   D(1,2,3,9)              0.0            -DE/DX =    0.0                 !
 ! D11   D(7,2,3,9)            121.9043         -DE/DX =    0.0                 !
 ! D12   D(8,2,3,9)           -121.924          -DE/DX =    0.0                 !
 --------------------------------------------------------------------------------
 Iteration  1 RMS(Cart)=  0.02156919 RMS(Int)=  0.02131639
 Iteration  2 RMS(Cart)=  0.00058554 RMS(Int)=  0.02130480
 Iteration  3 RMS(Cart)=  0.00000417 RMS(Int)=  0.02130480
 Iteration  4 RMS(Cart)=  0.00000021 RMS(Int)=  0.02130480
 Iteration  1 RMS(Cart)=  0.01060546 RMS(Int)=  0.01048038
 Iteration  2 RMS(Cart)=  0.00521845 RMS(Int)=  0.01171736
 Iteration  3 RMS(Cart)=  0.00256777 RMS(Int)=  0.01307524
 Iteration  4 RMS(Cart)=  0.00126380 RMS(Int)=  0.01387131
 Iteration  5 RMS(Cart)=  0.00062213 RMS(Int)=  0.01428831
 Iteration  6 RMS(Cart)=  0.00030628 RMS(Int)=  0.01449909
 Iteration  7 RMS(Cart)=  0.00015079 RMS(Int)=  0.01460413
 Iteration  8 RMS(Cart)=  0.00007424 RMS(Int)=  0.01465614
 Iteration  9 RMS(Cart)=  0.00003655 RMS(Int)=  0.01468182
 Iteration 10 RMS(Cart)=  0.00001800 RMS(Int)=  0.01469448
 Iteration 11 RMS(Cart)=  0.00000886 RMS(Int)=  0.01470072
 Iteration 12 RMS(Cart)=  0.00000436 RMS(Int)=  0.01470379
 Iteration 13 RMS(Cart)=  0.00000215 RMS(Int)=  0.01470531
 Iteration 14 RMS(Cart)=  0.00000106 RMS(Int)=  0.01470605
 Iteration 15 RMS(Cart)=  0.00000052 RMS(Int)=  0.01470642
 GradGradGradGradGradGradGradGradGradGradGradGradGradGradGradGradGradGrad

                          Input orientation:                          
 ---------------------------------------------------------------------
 Center     Atomic      Atomic             Coordinates (Angstroms)
 Number     Number       Type             X           Y           Z
 ---------------------------------------------------------------------
      1          6           0       -1.211861   -0.234861   -0.015565
      2          6           0        0.088505    0.553292    0.009932
      3          8           0        1.227214   -0.270324   -0.057918
      4          1           0       -2.066091    0.428521    0.070687
      5          1           0       -1.252293   -0.941080    0.809373
      6          1           0       -1.310629   -0.787986   -0.945728
      7          1           0        0.098269    1.073549    0.962501
      8          1           0        0.166636    1.302272   -0.771783
      9          1           0        0.976770   -1.159611   -0.261150
 ---------------------------------------------------------------------
                    Distance matrix (angstroms):
                    1          2          3          4          5
     1  C    0.000000
     2  C    1.520785   0.000000
     3  O    2.439700   1.406985   0.000000
     4  H    1.085000   2.159061   3.369092   0.000000
     5  H    1.086694   2.161017   2.711100   1.756056   0.000000
     6  H    1.086694   2.160992   2.738033   1.756050   1.762731
     7  H    2.094037   1.085427   2.030213   2.428138   2.430267
     8  H    2.198840   1.085428   2.026694   2.541313   3.089667
     9  H    2.388635   1.948471   0.945969   3.448374   2.482438
                    6          7          8          9
     6  H    0.000000
     7  H    3.015235   0.000000
     8  H    2.565492   1.750637   0.000000
     9  H    2.416391   2.693713   2.641578   0.000000
 Symmetry turned off by external request.
 Stoichiometry    C2H6O
 Framework group  C1[X(C2H6O)]
 Deg. of freedom    21
 Full point group                 C1      NOp   1
 Rotational constants (GHZ):     34.6450630      9.4611561      8.1827371
 Standard basis: 6-31G(d) (6D, 7F)
 Integral buffers will be    131072 words long.
 Raffenetti 1 integral format.
 Two-electron integral symmetry is turned off.
    57 basis functions,   108 primitive gaussians,    57 cartesian basis functions
    13 alpha electrons       13 beta electrons
       nuclear repulsion energy        82.3373880908 Hartrees.
 NAtoms=    9 NActive=    9 NUniq=    9 SFac= 7.50D-01 NAtFMM=   80 NAOKFM=F Big=F
 One-electron integrals computed using PRISM.
 NBasis=    57 RedAO= T  NBF=    57
 NBsUse=    57 1.00D-06 NBFU=    57
 Initial guess read from the read-write file.
 B after Tr=     0.000000    0.000000    0.000000
         Rot=    1.000000    0.000000    0.000000    0.000000 Ang=   0.00 deg.
 Harris functional with IExCor=  205 diagonalized for initial guess.
 ExpMin= 1.61D-01 ExpMax= 5.48D+03 ExpMxC= 8.25D+02 IAcc=1 IRadAn=         1 AccDes= 0.00D+00
 HarFok:  IExCor=  205 AccDes= 0.00D+00 IRadAn=         1 IDoV= 1
 ScaDFX=  1.000000  1.000000  1.000000  1.000000
 FoFCou: FMM=F IPFlag=           0 FMFlag=      100000 FMFlg1=           0
         NFxFlg=           0 DoJE=T BraDBF=F KetDBF=T FulRan=T
         Omega=  0.000000  0.000000  1.000000  0.000000  0.000000 ICntrl=     500 IOpCl=  0
         NMat0=    1 NMatS0=    1 NMatT0=    0 NMatD0=    1 NMtDS0=    0 NMtDT0=    0
         I1Cent=           4 NGrid=           0.
 Symmetry not used in FoFCou.
 Requested convergence on RMS density matrix=1.00D-08 within 128 cycles.
 Requested convergence on MAX density matrix=1.00D-06.
 Requested convergence on             energy=1.00D-06.
 No special actions if energy rises.
 Keep R1 ints in memory in canonical form, NReq=2215640.
 SCF Done:  E(RHF) =  -154.071967335     A.U. after   11 cycles
             Convg  =    0.3724D-08             -V/T =  2.0012
 Calling FoFJK, ICntrl=      2127 FMM=F ISym2X=0 I1Cent= 0 IOpClX= 0 NMat=1 NMatS=1 NMatT=0.
 -------------------------------------------------------------------
 Center     Atomic                   Forces (Hartrees/Bohr)
 Number     Number              X              Y              Z
 -------------------------------------------------------------------
      1        6          -0.000665211    0.000598798   -0.009195113
      2        6           0.000311042   -0.001566828    0.012384600
      3        8          -0.000122157   -0.000575933    0.000961183
      4        1          -0.000030049    0.000017940   -0.000297961
      5        1           0.001582317    0.001008806   -0.000225143
      6        1          -0.001597009   -0.000991982   -0.000229263
      7        1           0.006387258    0.003238425   -0.001047239
      8        1          -0.006008269   -0.002379719   -0.001653541
      9        1           0.000142080    0.000650493   -0.000697522
 -------------------------------------------------------------------
 Cartesian Forces:  Max     0.012384600 RMS     0.003588089

 GradGradGradGradGradGradGradGradGradGradGradGradGradGradGradGradGradGrad
 Berny optimization.
 Internal  Forces:  Max     0.009120508 RMS     0.002872597
 Search for a local minimum.
 Step number   1 out of a maximum of   43 on scan point     2 out of     9
 All quantities printed in internal units (Hartrees-Bohrs-Radians)
 Mixed Optimization -- RFO/linear search
 Second derivative matrix not updated -- first step.
     Eigenvalues ---    0.00479   0.05378   0.05600   0.05815   0.05918
     Eigenvalues ---    0.11901   0.14025   0.15922   0.15964   0.16765
     Eigenvalues ---    0.17372   0.23827   0.31457   0.34900   0.35014
     Eigenvalues ---    0.35231   0.35651   0.36357   0.45310   0.58388
     Eigenvalues --- 1000.000001000.000001000.000001000.000001000.00000
     Eigenvalues --- 1000.000001000.000001000.000001000.000001000.00000
     Eigenvalues --- 1000.000001000.000001000.00000
 RFO step:  Lambda=-2.02934681D-03 EMin= 4.79077214D-03
 Linear search not attempted -- first point.
 Iteration  1 RMS(Cart)=  0.02741799 RMS(Int)=  0.00085712
 Iteration  2 RMS(Cart)=  0.00072693 RMS(Int)=  0.00045580
 Iteration  3 RMS(Cart)=  0.00000043 RMS(Int)=  0.00045580
 Iteration  1 RMS(Cart)=  0.00001341 RMS(Int)=  0.00001313
 Iteration  2 RMS(Cart)=  0.00000659 RMS(Int)=  0.00001468
 Iteration  3 RMS(Cart)=  0.00000324 RMS(Int)=  0.00001638
 Iteration  4 RMS(Cart)=  0.00000159 RMS(Int)=  0.00001737
 Iteration  5 RMS(Cart)=  0.00000078 RMS(Int)=  0.00001789
 Variable       Old X    -DE/DX   Delta X   Delta X   Delta X     New X
                                 (Linear)    (Quad)   (Total)
    R1        2.87387   0.00045   0.00000  -0.00273  -0.00273   2.87113
    R2        2.05035   0.00001   0.00000  -0.00035  -0.00035   2.05000
    R3        2.05355  -0.00089   0.00000  -0.00116  -0.00116   2.05239
    R4        2.05355   0.00085   0.00000   0.00091   0.00091   2.05446
    R5        2.65882  -0.00004   0.00000   0.00096   0.00096   2.65977
    R6        2.05116   0.00069   0.00000   0.00030   0.00030   2.05145
    R7        2.05116  -0.00088   0.00000  -0.00082  -0.00082   2.05034
    R8        1.78762  -0.00050   0.00000  -0.00034  -0.00034   1.78729
    A1        1.93371   0.00003   0.00000  -0.00360  -0.00363   1.93008
    A2        1.93466  -0.00289   0.00000  -0.01240  -0.01240   1.92226
    A3        1.93463   0.00291   0.00000   0.01253   0.01255   1.94717
    A4        1.88357   0.00104   0.00000   0.00464   0.00459   1.88816
    A5        1.88357  -0.00106   0.00000  -0.00152  -0.00152   1.88204
    A6        1.89190  -0.00003   0.00000   0.00052   0.00056   1.89246
    A7        1.96908   0.00047   0.00000  -0.00534  -0.00617   1.96291
    A8        1.84503   0.00912   0.00000   0.06951   0.06992   1.91495
    A9        1.99006  -0.00895   0.00000  -0.06688  -0.06663   1.92342
   A10        1.89190  -0.00393   0.00000  -0.00989  -0.01050   1.88140
   A11        1.88698   0.00390   0.00000   0.01546   0.01427   1.90125
   A12        1.87617  -0.00056   0.00000   0.00006   0.00133   1.87750
   A13        1.92452  -0.00011   0.00000   0.00207   0.00207   1.92659
    D1        3.10947   0.00055   0.00000   0.02125   0.02107   3.13054
    D2        1.04475  -0.00067   0.00000  -0.00757  -0.00808   1.03666
    D3       -1.01231  -0.00098   0.00000  -0.01599  -0.01526  -1.02757
    D4        1.01875   0.00113   0.00000   0.02592   0.02571   1.04447
    D5       -1.04597  -0.00010   0.00000  -0.00289  -0.00344  -1.04941
    D6       -3.10302  -0.00040   0.00000  -0.01131  -0.01062  -3.11365
    D7       -1.08304   0.00115   0.00000   0.02519   0.02501  -1.05802
    D8        3.13543  -0.00007   0.00000  -0.00363  -0.00415   3.13128
    D9        1.07838  -0.00038   0.00000  -0.01205  -0.01133   1.06705
   D10        0.17453  -0.00532   0.00000   0.00000   0.00000   0.17453
   D11        2.21164   0.00368   0.00000   0.07622   0.07610   2.28773
   D12       -2.04271   0.00301   0.00000   0.07929   0.07961  -1.96310
         Item               Value     Threshold  Converged?
 Maximum Force            0.006901     0.000450     NO 
 RMS     Force            0.002602     0.000300     NO 
 Maximum Displacement     0.084090     0.001800     NO 
 RMS     Displacement     0.027424     0.001200     NO 
 Predicted change in Energy=-1.034646D-03
 GradGradGradGradGradGradGradGradGradGradGradGradGradGradGradGradGradGrad

                          Input orientation:                          
 ---------------------------------------------------------------------
 Center     Atomic      Atomic             Coordinates (Angstroms)
 Number     Number       Type             X           Y           Z
 ---------------------------------------------------------------------
      1          6           0       -1.210195   -0.235137   -0.021641
      2          6           0        0.087687    0.552619    0.036093
      3          8           0        1.223258   -0.274986   -0.045044
      4          1           0       -2.063795    0.430005    0.054349
      5          1           0       -1.256128   -0.941012    0.802492
      6          1           0       -1.300899   -0.788116   -0.953271
      7          1           0        0.142435    1.100272    0.971811
      8          1           0        0.122138    1.277677   -0.770325
      9          1           0        0.972019   -1.157553   -0.274115
 ---------------------------------------------------------------------
                    Distance matrix (angstroms):
                    1          2          3          4          5
     1  C    0.000000
     2  C    1.519339   0.000000
     3  O    2.433892   1.407492   0.000000
     4  H    1.084814   2.155051   3.363274   0.000000
     5  H    1.086078   2.150381   2.703565   1.758332   0.000000
     6  H    1.087174   2.169005   2.731217   1.755314   1.762977
     7  H    2.144731   1.085583   2.023242   2.481622   2.480219
     8  H    2.150406   1.084992   2.036973   2.485345   3.048926
     9  H    2.382573   1.950118   0.945791   3.441569   2.484071
                    6          7          8          9
     6  H    0.000000
     7  H    3.058621   0.000000
     8  H    2.515155   1.751264   0.000000
     9  H    2.400811   2.708932   2.626569   0.000000
 Symmetry turned off by external request.
 Stoichiometry    C2H6O
 Framework group  C1[X(C2H6O)]
 Deg. of freedom    21
 Full point group                 C1      NOp   1
 Rotational constants (GHZ):     34.4770872      9.5036974      8.2075682
 Standard basis: 6-31G(d) (6D, 7F)
 Integral buffers will be    131072 words long.
 Raffenetti 1 integral format.
 Two-electron integral symmetry is turned off.
    57 basis functions,   108 primitive gaussians,    57 cartesian basis functions
    13 alpha electrons       13 beta electrons
       nuclear repulsion energy        82.3811473947 Hartrees.
 NAtoms=    9 NActive=    9 NUniq=    9 SFac= 7.50D-01 NAtFMM=   80 NAOKFM=F Big=F
 One-electron integrals computed using PRISM.
 NBasis=    57 RedAO= T  NBF=    57
 NBsUse=    57 1.00D-06 NBFU=    57
 Initial guess read from the read-write file.
 B after Tr=     0.000000    0.000000    0.000000
         Rot=    1.000000    0.000000    0.000000    0.000000 Ang=   0.00 deg.
 Harris functional with IExCor=  205 diagonalized for initial guess.
 ExpMin= 1.61D-01 ExpMax= 5.48D+03 ExpMxC= 8.25D+02 IAcc=1 IRadAn=         1 AccDes= 0.00D+00
 HarFok:  IExCor=  205 AccDes= 0.00D+00 IRadAn=         1 IDoV= 1
 ScaDFX=  1.000000  1.000000  1.000000  1.000000
 FoFCou: FMM=F IPFlag=           0 FMFlag=      100000 FMFlg1=           0
         NFxFlg=           0 DoJE=T BraDBF=F KetDBF=T FulRan=T
         Omega=  0.000000  0.000000  1.000000  0.000000  0.000000 ICntrl=     500 IOpCl=  0
         NMat0=    1 NMatS0=    1 NMatT0=    0 NMatD0=    1 NMtDS0=    0 NMtDT0=    0
         I1Cent=           4 NGrid=           0.
 Symmetry not used in FoFCou.
 Requested convergence on RMS density matrix=1.00D-08 within 128 cycles.
 Requested convergence on MAX density matrix=1.00D-06.
 Requested convergence on             energy=1.00D-06.
 No special actions if energy rises.
 Keep R1 ints in memory in canonical form, NReq=2215640.
 SCF Done:  E(RHF) =  -154.072993528     A.U. after   10 cycles
             Convg  =    0.3551D-08             -V/T =  2.0012
 Calling FoFJK, ICntrl=      2127 FMM=F ISym2X=0 I1Cent= 0 IOpClX= 0 NMat=1 NMatS=1 NMatT=0.
 -------------------------------------------------------------------
 Center     Atomic                   Forces (Hartrees/Bohr)
 Number     Number              X              Y              Z
 -------------------------------------------------------------------
      1        6          -0.001037907    0.000669775    0.001713576
      2        6           0.000849979   -0.002051334   -0.000563498
      3        8           0.000688780    0.000609158    0.001639506
      4        1          -0.000586645   -0.000347370    0.000056283
      5        1          -0.000888500   -0.000402108   -0.000195982
      6        1           0.000800755    0.000526592   -0.000113584
      7        1           0.000415941   -0.000145074   -0.000987388
      8        1          -0.000074397    0.000406294   -0.000597166
      9        1          -0.000168005    0.000734065   -0.000951747
 -------------------------------------------------------------------
 Cartesian Forces:  Max     0.002051334 RMS     0.000834481

 GradGradGradGradGradGradGradGradGradGradGradGradGradGradGradGradGradGrad
 Berny optimization.
 Using GEDIIS/GDIIS optimizer.
 Internal  Forces:  Max     0.002152745 RMS     0.000766408
 Search for a local minimum.
 Step number   2 out of a maximum of   43 on scan point     2 out of     9
 All quantities printed in internal units (Hartrees-Bohrs-Radians)
 Mixed Optimization -- En-DIIS/RFO-DIIS
 Update second derivatives using D2CorX and points    1    2
 DE= -1.03D-03 DEPred=-1.03D-03 R= 9.92D-01
 SS=  1.41D+00  RLast= 1.56D-01 DXNew= 5.0454D-01 4.6933D-01
 Trust test= 9.92D-01 RLast= 1.56D-01 DXMaxT set to 4.69D-01
 Use linear search instead of GDIIS.
     Eigenvalues ---    0.00479   0.04902   0.05585   0.05894   0.06101
     Eigenvalues ---    0.11714   0.13231   0.15926   0.16323   0.16767
     Eigenvalues ---    0.19360   0.23728   0.31475   0.34906   0.35035
     Eigenvalues ---    0.35246   0.35640   0.36580   0.45317   0.58369
     Eigenvalues --- 1000.000001000.000001000.000001000.000001000.00000
     Eigenvalues --- 1000.000001000.000001000.000001000.000001000.00000
     Eigenvalues --- 1000.000001000.000001000.00000
 RFO step:  Lambda=-1.12181823D-04 EMin= 4.79288761D-03
 Quartic linear search produced a step of  0.01059.
 Iteration  1 RMS(Cart)=  0.00904582 RMS(Int)=  0.00006158
 Iteration  2 RMS(Cart)=  0.00005725 RMS(Int)=  0.00002746
 Iteration  3 RMS(Cart)=  0.00000000 RMS(Int)=  0.00002746
 Iteration  1 RMS(Cart)=  0.00000057 RMS(Int)=  0.00000056
 Variable       Old X    -DE/DX   Delta X   Delta X   Delta X     New X
                                 (Linear)    (Quad)   (Total)
    R1        2.87113   0.00118  -0.00003   0.00358   0.00355   2.87469
    R2        2.05000   0.00025   0.00000   0.00081   0.00080   2.05081
    R3        2.05239   0.00015  -0.00001   0.00038   0.00037   2.05276
    R4        2.05446  -0.00024   0.00001  -0.00073  -0.00072   2.05374
    R5        2.65977  -0.00041   0.00001  -0.00098  -0.00097   2.65880
    R6        2.05145  -0.00090   0.00000  -0.00264  -0.00263   2.04882
    R7        2.05034   0.00071  -0.00001   0.00197   0.00196   2.05230
    R8        1.78729  -0.00041   0.00000  -0.00066  -0.00067   1.78662
    A1        1.93008   0.00093  -0.00004   0.00602   0.00594   1.93603
    A2        1.92226   0.00156  -0.00013   0.01109   0.01094   1.93320
    A3        1.94717  -0.00181   0.00013  -0.01304  -0.01289   1.93429
    A4        1.88816  -0.00090   0.00005  -0.00189  -0.00192   1.88625
    A5        1.88204   0.00018  -0.00002  -0.00139  -0.00140   1.88064
    A6        1.89246   0.00001   0.00001  -0.00089  -0.00084   1.89161
    A7        1.96291   0.00215  -0.00007   0.01025   0.01015   1.97307
    A8        1.91495  -0.00021   0.00074   0.00594   0.00666   1.92161
    A9        1.92342  -0.00045  -0.00071  -0.00758  -0.00826   1.91517
   A10        1.88140  -0.00097  -0.00011  -0.00350  -0.00369   1.87771
   A11        1.90125  -0.00066   0.00015  -0.00261  -0.00245   1.89880
   A12        1.87750   0.00004   0.00001  -0.00299  -0.00295   1.87455
   A13        1.92659  -0.00070   0.00002  -0.00433  -0.00431   1.92228
    D1        3.13054   0.00014   0.00022  -0.00017   0.00010   3.13064
    D2        1.03666   0.00011  -0.00009  -0.00648  -0.00658   1.03008
    D3       -1.02757   0.00046  -0.00016  -0.00187  -0.00200  -1.02957
    D4        1.04447  -0.00033   0.00027  -0.00872  -0.00846   1.03601
    D5       -1.04941  -0.00037  -0.00004  -0.01504  -0.01514  -1.06455
    D6       -3.11365  -0.00001  -0.00011  -0.01042  -0.01056  -3.12421
    D7       -1.05802  -0.00020   0.00026  -0.00650  -0.00621  -1.06423
    D8        3.13128  -0.00023  -0.00004  -0.01282  -0.01289   3.11840
    D9        1.06705   0.00012  -0.00012  -0.00820  -0.00831   1.05874
   D10        0.17453   0.00059   0.00000   0.00000   0.00001   0.17454
   D11        2.28773   0.00102   0.00081   0.01144   0.01223   2.29997
   D12       -1.96310   0.00019   0.00084   0.00463   0.00548  -1.95762
         Item               Value     Threshold  Converged?
 Maximum Force            0.002151     0.000450     NO 
 RMS     Force            0.000764     0.000300     NO 
 Maximum Displacement     0.023178     0.001800     NO 
 RMS     Displacement     0.009058     0.001200     NO 
 Predicted change in Energy=-5.645617D-05
 GradGradGradGradGradGradGradGradGradGradGradGradGradGradGradGradGradGrad

                          Input orientation:                          
 ---------------------------------------------------------------------
 Center     Atomic      Atomic             Coordinates (Angstroms)
 Number     Number       Type             X           Y           Z
 ---------------------------------------------------------------------
      1          6           0       -1.213815   -0.234574   -0.017505
      2          6           0        0.089037    0.548772    0.037745
      3          8           0        1.229041   -0.271839   -0.043323
      4          1           0       -2.068843    0.429414    0.058606
      5          1           0       -1.268393   -0.949239    0.798747
      6          1           0       -1.298566   -0.777865   -0.954931
      7          1           0        0.150697    1.104263    0.966774
      8          1           0        0.118258    1.269447   -0.774188
      9          1           0        0.979103   -1.154608   -0.271576
 ---------------------------------------------------------------------
                    Distance matrix (angstroms):
                    1          2          3          4          5
     1  C    0.000000
     2  C    1.521220   0.000000
     3  O    2.443277   1.406977   0.000000
     4  H    1.085240   2.161280   3.373157   0.000000
     5  H    1.086274   2.160042   2.721237   1.757616   0.000000
     6  H    1.086791   2.161207   2.734208   1.754453   1.762290
     7  H    2.150159   1.084190   2.019103   2.491295   2.501783
     8  H    2.146874   1.086029   2.035575   2.486486   3.052784
     9  H    2.391633   1.946639   0.945437   3.450815   2.497800
                    6          7          8          9
     6  H    0.000000
     7  H    3.055441   0.000000
     8  H    2.496306   1.749082   0.000000
     9  H    2.407631   2.705969   2.621014   0.000000
 Symmetry turned off by external request.
 Stoichiometry    C2H6O
 Framework group  C1[X(C2H6O)]
 Deg. of freedom    21
 Full point group                 C1      NOp   1
 Rotational constants (GHZ):     34.7326726      9.4356764      8.1698113
 Standard basis: 6-31G(d) (6D, 7F)
 Integral buffers will be    131072 words long.
 Raffenetti 1 integral format.
 Two-electron integral symmetry is turned off.
    57 basis functions,   108 primitive gaussians,    57 cartesian basis functions
    13 alpha electrons       13 beta electrons
       nuclear repulsion energy        82.3132912029 Hartrees.
 NAtoms=    9 NActive=    9 NUniq=    9 SFac= 7.50D-01 NAtFMM=   80 NAOKFM=F Big=F
 One-electron integrals computed using PRISM.
 NBasis=    57 RedAO= T  NBF=    57
 NBsUse=    57 1.00D-06 NBFU=    57
 Initial guess read from the read-write file.
 B after Tr=     0.000000    0.000000    0.000000
         Rot=    1.000000    0.000000    0.000000    0.000000 Ang=   0.00 deg.
 Harris functional with IExCor=  205 diagonalized for initial guess.
 ExpMin= 1.61D-01 ExpMax= 5.48D+03 ExpMxC= 8.25D+02 IAcc=1 IRadAn=         1 AccDes= 0.00D+00
 HarFok:  IExCor=  205 AccDes= 0.00D+00 IRadAn=         1 IDoV= 1
 ScaDFX=  1.000000  1.000000  1.000000  1.000000
 FoFCou: FMM=F IPFlag=           0 FMFlag=      100000 FMFlg1=           0
         NFxFlg=           0 DoJE=T BraDBF=F KetDBF=T FulRan=T
         Omega=  0.000000  0.000000  1.000000  0.000000  0.000000 ICntrl=     500 IOpCl=  0
         NMat0=    1 NMatS0=    1 NMatT0=    0 NMatD0=    1 NMtDS0=    0 NMtDT0=    0
         I1Cent=           4 NGrid=           0.
 Symmetry not used in FoFCou.
 Requested convergence on RMS density matrix=1.00D-08 within 128 cycles.
 Requested convergence on MAX density matrix=1.00D-06.
 Requested convergence on             energy=1.00D-06.
 No special actions if energy rises.
 Keep R1 ints in memory in canonical form, NReq=2215640.
 SCF Done:  E(RHF) =  -154.073041055     A.U. after    9 cycles
             Convg  =    0.7810D-08             -V/T =  2.0012
 Calling FoFJK, ICntrl=      2127 FMM=F ISym2X=0 I1Cent= 0 IOpClX= 0 NMat=1 NMatS=1 NMatT=0.
 -------------------------------------------------------------------
 Center     Atomic                   Forces (Hartrees/Bohr)
 Number     Number              X              Y              Z
 -------------------------------------------------------------------
      1        6           0.000401725   -0.000275089    0.000874551
      2        6           0.000197135    0.000606170   -0.001176762
      3        8          -0.000764205   -0.000470578    0.001578735
      4        1           0.000332753    0.000083270    0.000046757
      5        1          -0.000123587   -0.000019995   -0.000028003
      6        1          -0.000017511   -0.000140429   -0.000163146
      7        1          -0.000165367    0.000086082    0.000068280
      8        1          -0.000124563    0.000157273   -0.000088729
      9        1           0.000263620   -0.000026703   -0.001111682
 -------------------------------------------------------------------
 Cartesian Forces:  Max     0.001578735 RMS     0.000532894

 GradGradGradGradGradGradGradGradGradGradGradGradGradGradGradGradGradGrad
 Berny optimization.
 Using GEDIIS/GDIIS optimizer.
 Internal  Forces:  Max     0.000948038 RMS     0.000325905
 Search for a local minimum.
 Step number   3 out of a maximum of   43 on scan point     2 out of     9
 All quantities printed in internal units (Hartrees-Bohrs-Radians)
 Mixed Optimization -- En-DIIS/RFO-DIIS
 Swaping is turned off.
 Update second derivatives using D2CorX and points    1    2    3
 DE= -4.75D-05 DEPred=-5.65D-05 R= 8.42D-01
 SS=  1.41D+00  RLast= 3.91D-02 DXNew= 7.8931D-01 1.1730D-01
 Trust test= 8.42D-01 RLast= 3.91D-02 DXMaxT set to 4.69D-01
     Eigenvalues ---    0.00480   0.04666   0.05642   0.05874   0.06094
     Eigenvalues ---    0.11927   0.12980   0.15929   0.16549   0.16866
     Eigenvalues ---    0.19076   0.26307   0.33287   0.34932   0.35198
     Eigenvalues ---    0.35403   0.35734   0.36496   0.45261   0.58607
     Eigenvalues --- 1000.000001000.000001000.000001000.000001000.00000
     Eigenvalues --- 1000.000001000.000001000.000001000.000001000.00000
     Eigenvalues --- 1000.000001000.000001000.00000
 En-DIIS/RFO-DIIS IScMMF=        0 using points:     3    2
 RFO step:  Lambda=-3.28114551D-06.
 DIIS coeffs:      0.86843      0.13157
 Iteration  1 RMS(Cart)=  0.00127708 RMS(Int)=  0.00000372
 Iteration  2 RMS(Cart)=  0.00000097 RMS(Int)=  0.00000364
 Iteration  1 RMS(Cart)=  0.00000012 RMS(Int)=  0.00000012
 Variable       Old X    -DE/DX   Delta X   Delta X   Delta X     New X
                                  (DIIS)     (GDIIS)  (Total)
[...]

 GradGradGradGradGradGradGradGradGradGradGradGradGradGradGradGradGradGrad
 Berny optimization.
 Using GEDIIS/GDIIS optimizer.
 Internal  Forces:  Max     0.001213122 RMS     0.000297450
 Search for a local minimum.
 Step number   3 out of a maximum of   43 on scan point     9 out of     9
 All quantities printed in internal units (Hartrees-Bohrs-Radians)
 Mixed Optimization -- En-DIIS/RFO-DIIS
 Swaping is turned off.
 Update second derivatives using D2CorX and points    1    2    3
 DE= -5.05D-06 DEPred=-5.06D-06 R= 9.98D-01
 SS=  1.41D+00  RLast= 1.15D-02 DXNew= 8.4443D-01 3.4600D-02
 Trust test= 9.98D-01 RLast= 1.15D-02 DXMaxT set to 5.02D-01
     Eigenvalues ---    0.00455   0.04690   0.05707   0.05835   0.06143
     Eigenvalues ---    0.12783   0.13891   0.15998   0.17234   0.18310
     Eigenvalues ---    0.19613   0.28278   0.34400   0.34926   0.35412
     Eigenvalues ---    0.35613   0.36518   0.36568   0.45789   0.58833
     Eigenvalues --- 1000.000001000.000001000.000001000.000001000.00000
     Eigenvalues --- 1000.000001000.000001000.000001000.000001000.00000
     Eigenvalues --- 1000.000001000.000001000.00000
 En-DIIS/RFO-DIIS IScMMF=        0 using points:     3    2
 RFO step:  Lambda=-1.46608452D-07.
 DIIS coeffs:      0.99929      0.00071
 Iteration  1 RMS(Cart)=  0.00021826 RMS(Int)=  0.00000016
 Iteration  2 RMS(Cart)=  0.00000003 RMS(Int)=  0.00000015
 Iteration  1 RMS(Cart)=  0.00000033 RMS(Int)=  0.00000029
 Variable       Old X    -DE/DX   Delta X   Delta X   Delta X     New X
                                  (DIIS)     (GDIIS)  (Total)
    R1        2.87441   0.00003   0.00000   0.00011   0.00011   2.87452
    R2        2.05275   0.00002   0.00000   0.00004   0.00004   2.05279
    R3        2.04897  -0.00004   0.00000  -0.00009  -0.00009   2.04888
    R4        2.05385  -0.00002   0.00000  -0.00006  -0.00006   2.05379
    R5        2.65523  -0.00008   0.00000  -0.00023  -0.00023   2.65500
    R6        2.04569   0.00005   0.00000   0.00012   0.00012   2.04581
    R7        2.05600  -0.00001   0.00000  -0.00003  -0.00003   2.05597
    R8        1.78855   0.00002   0.00000   0.00003   0.00003   1.78859
    A1        1.93532  -0.00003   0.00000  -0.00023  -0.00023   1.93508
    A2        1.92331  -0.00002   0.00000  -0.00010  -0.00010   1.92321
    A3        1.93832   0.00000   0.00000   0.00001   0.00001   1.93832
    A4        1.89553   0.00002   0.00000   0.00016   0.00016   1.89569
    A5        1.88409   0.00002   0.00000   0.00013   0.00013   1.88422
    A6        1.88579   0.00001   0.00000   0.00004   0.00004   1.88583
    A7        1.95702   0.00005   0.00000   0.00025   0.00025   1.95727
    A8        1.91966   0.00048   0.00000  -0.00024  -0.00024   1.91941
    A9        1.92991  -0.00050   0.00000  -0.00014  -0.00014   1.92977
   A10        1.85073   0.00000   0.00000   0.00016   0.00016   1.85089
   A11        1.93289  -0.00002   0.00000  -0.00028  -0.00028   1.93260
   A12        1.87004   0.00003   0.00000   0.00026   0.00026   1.87030
   A13        1.91221   0.00003   0.00000   0.00017   0.00017   1.91238
    D1        3.09252   0.00024   0.00000   0.00020   0.00020   3.09272
    D2        1.03777  -0.00011   0.00000   0.00000   0.00000   1.03777
    D3       -1.02414  -0.00013   0.00000  -0.00009  -0.00009  -1.02423
    D4        0.99323   0.00024   0.00000   0.00021   0.00021   0.99344
    D5       -1.06153  -0.00011   0.00000   0.00000   0.00001  -1.06152
    D6       -3.12344  -0.00013   0.00000  -0.00008  -0.00008  -3.12352
    D7       -1.09582   0.00024   0.00000   0.00022   0.00022  -1.09561
    D8        3.13261  -0.00010   0.00000   0.00001   0.00002   3.13262
    D9        1.07069  -0.00013   0.00000  -0.00007  -0.00007   1.07062
   D10        1.39626  -0.00121   0.00000   0.00000   0.00000   1.39626
   D11       -2.79154  -0.00060   0.00000  -0.00005  -0.00005  -2.79159
   D12       -0.76860  -0.00058   0.00000   0.00021   0.00021  -0.76839
         Item               Value     Threshold  Converged?
 Maximum Force            0.000081     0.000450     YES
 RMS     Force            0.000029     0.000300     YES
 Maximum Displacement     0.000548     0.001800     YES
 RMS     Displacement     0.000218     0.001200     YES
 Predicted change in Energy=-5.925811D-08
 Optimization completed.
    -- Stationary point found.
                           ----------------------------
                           !   Optimized Parameters   !
                           ! (Angstroms and Degrees)  !
 --------------------------                            --------------------------
 ! Name  Definition              Value          Derivative Info.                !
 --------------------------------------------------------------------------------
 ! R1    R(1,2)                  1.5211         -DE/DX =    0.0                 !
 ! R2    R(1,4)                  1.0863         -DE/DX =    0.0                 !
 ! R3    R(1,5)                  1.0843         -DE/DX =    0.0                 !
 ! R4    R(1,6)                  1.0869         -DE/DX =    0.0                 !
 ! R5    R(2,3)                  1.4051         -DE/DX =   -0.0001              !
 ! R6    R(2,7)                  1.0825         -DE/DX =    0.0                 !
 ! R7    R(2,8)                  1.088          -DE/DX =    0.0                 !
 ! R8    R(3,9)                  0.9465         -DE/DX =    0.0                 !
 ! A1    A(2,1,4)              110.8854         -DE/DX =    0.0                 !
 ! A2    A(2,1,5)              110.1974         -DE/DX =    0.0                 !
 ! A3    A(2,1,6)              111.0574         -DE/DX =    0.0                 !
 ! A4    A(4,1,5)              108.6056         -DE/DX =    0.0                 !
 ! A5    A(4,1,6)              107.9504         -DE/DX =    0.0                 !
 ! A6    A(5,1,6)              108.0478         -DE/DX =    0.0                 !
 ! A7    A(1,2,3)              112.1288         -DE/DX =    0.0                 !
 ! A8    A(1,2,7)              109.9882         -DE/DX =    0.0005              !
 ! A9    A(1,2,8)              110.5757         -DE/DX =   -0.0005              !
 ! A10   A(3,2,7)              106.0388         -DE/DX =    0.0                 !
 ! A11   A(3,2,8)              110.7464         -DE/DX =    0.0                 !
 ! A12   A(7,2,8)              107.1453         -DE/DX =    0.0                 !
 ! A13   A(2,3,9)              109.5614         -DE/DX =    0.0                 !
 ! D1    D(4,1,2,3)            177.1886         -DE/DX =    0.0002              !
 ! D2    D(4,1,2,7)             59.4597         -DE/DX =   -0.0001              !
 ! D3    D(4,1,2,8)            -58.6791         -DE/DX =   -0.0001              !
 ! D4    D(5,1,2,3)             56.9079         -DE/DX =    0.0002              !
 ! D5    D(5,1,2,7)            -60.8209         -DE/DX =   -0.0001              !
 ! D6    D(5,1,2,8)           -178.9598         -DE/DX =   -0.0001              !
 ! D7    D(6,1,2,3)            -62.7861         -DE/DX =    0.0002              !
 ! D8    D(6,1,2,7)            179.485          -DE/DX =   -0.0001              !
 ! D9    D(6,1,2,8)             61.3462         -DE/DX =   -0.0001              !
 ! D10   D(1,2,3,9)             79.9999         -DE/DX =   -0.0012              !
 ! D11   D(7,2,3,9)           -159.9435         -DE/DX =   -0.0006              !
 ! D12   D(8,2,3,9)            -44.0373         -DE/DX =   -0.0006              !
 --------------------------------------------------------------------------------
 GradGradGradGradGradGradGradGradGradGradGradGradGradGradGradGradGradGrad

 Summary of Optimized Potential Surface Scan
                           1         2         3         4         5
     Eigenvalues --  -154.07288-154.07304-154.07349-154.07412-154.07476
           R1           1.52069   1.52088   1.52092   1.52110   1.52126
           R2           1.08498   1.08498   1.08511   1.08526   1.08546
           R3           1.08669   1.08625   1.08581   1.08541   1.08501
           R4           1.08664   1.08710   1.08742   1.08764   1.08776
           R5           1.40689   1.40681   1.40599   1.40505   1.40466
           R6           1.08526   1.08429   1.08347   1.08281   1.08231
           R7           1.08530   1.08626   1.08716   1.08791   1.08834
           R8           0.94546   0.94558   0.94592   0.94638   0.94688
           A1         110.78590 110.79581 110.79851 110.81045 110.82142
           A2         110.86220 110.84825 110.82297 110.76792 110.70836
           A3         110.83120 110.85454 110.86114 110.89063 110.92753
           A4         107.92484 108.06085 108.22059 108.35698 108.47706
           A5         107.92341 107.78070 107.67726 107.61239 107.57654
           A6         108.39897 108.38534 108.34577 108.28878 108.21719
           A7         112.92292 112.91387 112.87382 112.81415 112.71509
           A8         109.87254 110.09662 110.26869 110.38778 110.46089
           A9         109.89420 109.71904 109.64262 109.66162 109.81299
           A10        108.29150 107.67408 107.08297 106.57278 106.13720
           A11        108.28028 108.86780 109.40252 109.84419 110.14598
           A12        107.40945 107.39832 107.39764 107.38257 107.38130
           A13        110.30326 110.25445 110.06795 109.84626 109.61491
           D1        -179.98795 179.40278 178.92597 178.46398 178.23932
           D2          59.00172  59.02896  59.21210  59.35592  59.69830
           D3         -58.97656 -58.96476 -58.83780 -58.75887 -58.55232
           D4          60.21340  59.43599  58.77333  58.16832  57.82482
           D5         -60.79693 -60.93782 -60.94054 -60.93974 -60.71619
           D6        -178.77521-178.93155-178.99044-179.05452-178.96681
           D7         -60.21142 -60.97790 -61.57830 -62.09457 -62.33294
           D8         178.77826 178.64828 178.70783 178.79737 179.12605
           D9          60.79997  60.65456  60.65793  60.68259  60.87543
           D10         -0.00005  10.00005  19.99999  29.99995  39.99994
           D11        121.90432 131.74988 141.53325 151.29895 161.03939
           D12       -121.92397-112.11167-102.37089 -92.67519 -83.02282
                           6         7         8         9
     Eigenvalues --  -154.07528-154.07555-154.07552-154.07522
           R1           1.52134   1.52133   1.52146   1.52107
           R2           1.08569   1.08589   1.08609   1.08627
           R3           1.08472   1.08450   1.08432   1.08427
           R4           1.08770   1.08750   1.08718   1.08685
           R5           1.40364   1.40368   1.40388   1.40509
           R6           1.08212   1.08205   1.08220   1.08253
           R7           1.08864   1.08854   1.08832   1.08799
           R8           0.94715   0.94724   0.94694   0.94646
           A1         110.83709 110.84900 110.85065 110.88541
           A2         110.56900 110.44384 110.29889 110.19742
           A3         110.97409 111.02834 111.05501 111.05737
           A4         108.55841 108.60561 108.63239 108.60565
           A5         107.63055 107.70323 107.82587 107.95044
           A6         108.16365 108.10625 108.07901 108.04778
           A7         112.65088 112.52011 112.39212 112.12879
           A8         110.38375 110.27981 110.09946 109.98823
           A9         109.96012 110.20105 110.39284 110.57575
           A10        105.89165 105.77462 105.82759 106.03880
           A11        110.41413 110.56720 110.67942 110.74636
           A12        107.34035 107.28444 107.22769 107.14527
           A13        109.44425 109.37473 109.40528 109.56135
           D1         177.86814 177.66940 177.41802 177.18856
           D2          59.73102  59.83275  59.71517  59.45974
           D3         -58.51292 -58.42723 -58.48176 -58.67911
           D4          57.43334  57.25025  57.05977  56.90790
           D5         -60.70379 -60.58640 -60.64308 -60.82091
           D6        -178.94773-178.84638-178.84000-178.95977
           D7         -62.59566 -62.65970 -62.73818 -62.78614
           D8         179.26721 179.50365 179.55896 179.48505
           D9          61.02327  61.24367  61.36204  61.34619
           D10         49.99992  59.99984  69.99985  79.99992
           D11        170.74507-179.53395-169.79327-159.94349
           D12        -73.36674 -63.70031 -53.94134 -44.03733
                          Input orientation:                          
 ---------------------------------------------------------------------
 Center     Atomic      Atomic             Coordinates (Angstroms)
 Number     Number       Type             X           Y           Z
 ---------------------------------------------------------------------
      1          6           0       -1.281055   -0.227857    0.026133
      2          6           0        0.071808    0.465968    0.071183
      3          8           0        1.132466   -0.448979    0.181407
      4          1           0       -2.087862    0.498631   -0.009344
      5          1           0       -1.412882   -0.848587    0.905314
      6          1           0       -1.364535   -0.864244   -0.850958
      7          1           0        0.132863    1.101389    0.945479
      8          1           0        0.202983    1.104998   -0.799538
      9          1           0        1.322733   -0.817549   -0.669326
 ---------------------------------------------------------------------
                    Distance matrix (angstroms):
                    1          2          3          4          5
     1  C    0.000000
     2  C    1.521072   0.000000
     3  O    2.428598   1.405088   0.000000
     4  H    1.086270   2.161418   3.362271   0.000000
     5  H    1.084271   2.151309   2.676289   1.762723   0.000000
     6  H    1.086851   2.163998   2.733722   1.757539   1.757007
     7  H    2.147383   1.082534   1.996661   2.491310   2.488643
     8  H    2.158843   1.087989   2.059378   2.498011   3.055165
     9  H    2.758824   1.939222   0.946462   3.714844   3.156587
                    6          7          8          9
     6  H    0.000000
     7  H    3.055012   0.000000
     8  H    2.517473   1.746428   0.000000
     9  H    2.693804   2.775915   2.228673   0.000000
 Symmetry turned off by external request.
 Stoichiometry    C2H6O
 Framework group  C1[X(C2H6O)]
 Deg. of freedom    21
 Full point group                 C1      NOp   1
 Rotational constants (GHZ):     35.0746871      9.2641269      8.2329485

 **********************************************************************

            Population analysis using the SCF density.

 **********************************************************************

 Alpha  occ. eigenvalues --  -20.55313 -11.27073 -11.21215  -1.35996  -1.01118
 Alpha  occ. eigenvalues --   -0.84763  -0.69541  -0.62599  -0.59356  -0.54769
 Alpha  occ. eigenvalues --   -0.52490  -0.47575  -0.43621
 Alpha virt. eigenvalues --    0.22202   0.27171   0.30019   0.31404   0.32180
 Alpha virt. eigenvalues --    0.34262   0.41342   0.42026   0.72958   0.74871
 Alpha virt. eigenvalues --    0.79510   0.81821   0.89672   0.91917   1.07814
 Alpha virt. eigenvalues --    1.13792   1.16711   1.18480   1.18744   1.20610
 Alpha virt. eigenvalues --    1.24174   1.28361   1.30480   1.43242   1.62146
 Alpha virt. eigenvalues --    1.72300   1.80586   1.83871   2.03619   2.09043
 Alpha virt. eigenvalues --    2.21920   2.26922   2.44627   2.48474   2.56268
 Alpha virt. eigenvalues --    2.66633   2.69283   2.76852   2.88051   3.00968
 Alpha virt. eigenvalues --    3.19543   4.16032   4.60315   4.82317
          Condensed to atoms (all electrons):
              1          2          3          4          5          6
     1  C    5.160268   0.345471  -0.056543   0.373419   0.389807   0.385754
     2  C    0.345471   4.749285   0.216016  -0.033125  -0.034303  -0.034830
     3  O   -0.056543   0.216016   8.383911   0.003341   0.001537   0.000341
     4  H    0.373419  -0.033125   0.003341   0.551672  -0.024635  -0.026463
     5  H    0.389807  -0.034303   0.001537  -0.024635   0.519282  -0.028636
     6  H    0.385754  -0.034830   0.000341  -0.026463  -0.028636   0.550637
     7  H   -0.050051   0.411281  -0.039249  -0.000083  -0.004246   0.004334
     8  H   -0.053598   0.401764  -0.035831   0.000860   0.004649  -0.004148
     9  H   -0.001615  -0.024204   0.261312  -0.000114  -0.000345   0.002291
              7          8          9
     1  C   -0.050051  -0.053598  -0.001615
     2  C    0.411281   0.401764  -0.024204
     3  O   -0.039249  -0.035831   0.261312
     4  H   -0.000083   0.000860  -0.000114
     5  H   -0.004246   0.004649  -0.000345
     6  H    0.004334  -0.004148   0.002291
     7  H    0.540682  -0.037021   0.005805
     8  H   -0.037021   0.592038  -0.007195
     9  H    0.005805  -0.007195   0.328731
 Mulliken atomic charges:
              1
     1  C   -0.492912
     2  C    0.002644
     3  O   -0.734836
     4  H    0.155129
     5  H    0.176890
     6  H    0.150720
     7  H    0.168548
     8  H    0.138482
     9  H    0.435335
 Sum of Mulliken atomic charges =   0.00000
 Mulliken charges with hydrogens summed into heavy atoms:
              1
     1  C   -0.010173
     2  C    0.309674
     3  O   -0.299501
 Sum of Mulliken charges with hydrogens summed into heavy atoms =   0.00000
 Electronic spatial extent (au):  <R**2>=            194.4023
 Charge=              0.0000 electrons
 Dipole moment (field-independent basis, Debye):
    X=             -0.8740    Y=              0.3733    Z=             -1.5405  Tot=              1.8101
 Quadrupole moment (field-independent basis, Debye-Ang):
   XX=            -21.4218   YY=            -19.3895   ZZ=            -18.7829
   XY=             -0.3953   XZ=             -2.5773   YZ=              1.6310
 Traceless Quadrupole moment (field-independent basis, Debye-Ang):
   XX=             -1.5571   YY=              0.4752   ZZ=              1.0818
   XY=             -0.3953   XZ=             -2.5773   YZ=              1.6310
 Octapole moment (field-independent basis, Debye-Ang**2):
  XXX=              7.7741  YYY=              2.8030  ZZZ=             -4.2746  XYY=              3.5469
  XXY=              0.5536  XXZ=             -4.5874  XZZ=              3.9883  YZZ=              0.3067
  YYZ=             -2.3431  XYZ=              2.1223
 Hexadecapole moment (field-independent basis, Debye-Ang**3):
 XXXX=           -160.0253 YYYY=            -54.1700 ZZZZ=            -32.9987 XXXY=             -3.0199
 XXXZ=             -6.4505 YYYX=             -0.4122 YYYZ=              1.3167 ZZZX=             -2.9594
 ZZZY=              0.9923 XXYY=            -33.2099 XXZZ=            -30.8128 YYZZ=            -13.0303
 XXYZ=              2.4198 YYXZ=             -2.2429 ZZXY=              0.3554
 N-N= 8.220601571885D+01 E-N=-5.261424020280D+02  KE= 1.538885113738D+02
 1\1\GINC-BLOGIN3\Scan\RHF\6-31G(d)\C2H6O1\RUPAKHETIC\23-Jun-2017\0\\#H
 F/6-31G* nosymm opt=ModRedundant\\Mol dihedral scan\\0,1\C,-1.28105452
 42,-0.2278569256,0.026132921\C,0.0718080652,0.4659679957,0.0711828765\
 O,1.1324659389,-0.4489794335,0.181406552\H,-2.0878621609,0.4986307071,
 -0.0093436759\H,-1.4128817396,-0.8485865898,0.9053140619\H,-1.36453493
 3,-0.8642435937,-0.850958265\H,0.1328630881,1.1013885878,0.9454787683\
 H,0.2029828569,1.1049979044,-0.7995377144\H,1.3227334087,-0.8175486525
 ,-0.6693255244\\Version=EM64L-G09RevA.02\HF=-154.0728806,-154.073044,-
 154.0734936,-154.0741178,-154.0747645,-154.0752812,-154.0755511,-154.0
 755218,-154.0752161\RMSD=3.962e-09,4.088e-09,2.316e-09,7.496e-09,8.241
 e-09,1.863e-09,2.897e-09,2.972e-09,3.000e-09\PG=C01 [X(C2H6O1)]\\@


 I KNOW YOU BELIEVE YOU UNDERSTAND WHAT YOU THINK I SAID,
 BUT I AM NOT SURE YOU REALIZE THAT WHAT YOU HEARD IS NOT WHAT I MEANT.
 Job cpu time:  0 days  0 hours  1 minutes 13.2 seconds.
 File lengths (MBytes):  RWF=     72 Int=      0 D2E=      0 Chk=      2 Scr=      2
 Normal termination of Gaussian 09 at Fri Jun 23 14:11:38 2017.
