 Entering Gaussian System, Link 0=/homes/huanglei/prog/g09/g09
 Initial command:
 /homes/huanglei/prog/g09/l1.exe /lcrc/project/Drude/chetan/tmp/1/Gau-39042.inp -scrdir=/lcrc/project/Drude/chetan/tmp/1/
 Entering Link 1 = /homes/huanglei/prog/g09/l1.exe PID=     39044.
  
 Copyright (c) 1988,1990,1992,1993,1995,1998,2003,2009, Gaussian, Inc.
                  All Rights Reserved.
  
 This is part of the Gaussian(R) 09 program.  It is based on
 the Gaussian(R) 03 system (copyright 2003, Gaussian, Inc.),
 the Gaussian(R) 98 system (copyright 1998, Gaussian, Inc.),
 the Gaussian(R) 94 system (copyright 1995, Gaussian, Inc.),
 the Gaussian 92(TM) system (copyright 1992, Gaussian, Inc.),
 the Gaussian 90(TM) system (copyright 1990, Gaussian, Inc.),
 the Gaussian 88(TM) system (copyright 1988, Gaussian, Inc.),
 the Gaussian 86(TM) system (copyright 1986, Carnegie Mellon
 University), and the Gaussian 82(TM) system (copyright 1983,
 Carnegie Mellon University). Gaussian is a federally registered
 trademark of Gaussian, Inc.
  
 This software contains proprietary and confidential information,
 including trade secrets, belonging to Gaussian, Inc.
  
 This software is provided under written license and may be
 used, copied, transmitted, or stored only in accord with that
 written license.
  
 The following legend is applicable only to US Government
 contracts under FAR:
  
                    RESTRICTED RIGHTS LEGEND
  
 Use, reproduction and disclosure by the US Government is
 subject to restrictions as set forth in subparagraphs (a)
 and (c) of the Commercial Computer Software - Restricted
 Rights clause in FAR 52.227-19.
  
 Gaussian, Inc.
 340 Quinnipiac St., Bldg. 40, Wallingford CT 06492
  
  
 ---------------------------------------------------------------
 Warning -- This program may not be used in any manner that
 competes with the business of Gaussian, Inc. or will provide
 assistance to any competitor of Gaussian, Inc.  The licensee
 of this program is prohibited from giving any competitor of
 Gaussian, Inc. access to this program.  By using this program,
 the user acknowledges that Gaussian, Inc. is engaged in the
 business of creating and licensing software in the field of
 computational chemistry and represents and warrants to the
 licensee that it is not a competitor of Gaussian, Inc. and that
 it will not use this program in any manner prohibited above.
 ---------------------------------------------------------------
  

 Cite this work as:
 Gaussian 09, Revision A.02,
 M. J. Frisch, G. W. Trucks, H. B. Schlegel, G. E. Scuseria, 
 M. A. Robb, J. R. Cheeseman, G. Scalmani, V. Barone, B. Mennucci, 
 G. A. Petersson, H. Nakatsuji, M. Caricato, X. Li, H. P. Hratchian, 
 A. F. Izmaylov, J. Bloino, G. Zheng, J. L. Sonnenberg, M. Hada, 
 M. Ehara, K. Toyota, R. Fukuda, J. Hasegawa, M. Ishida, T. Nakajima, 
 Y. Honda, O. Kitao, H. Nakai, T. Vreven, J. A. Montgomery, Jr., 
 J. E. Peralta, F. Ogliaro, M. Bearpark, J. J. Heyd, E. Brothers, 
 K. N. Kudin, V. N. Staroverov, R. Kobayashi, J. Normand, 
 K. Raghavachari, A. Rendell, J. C. Burant, S. S. Iyengar, J. Tomasi, 
 M. Cossi, N. Rega, J. M. Millam, M. Klene, J. E. Knox, J. B. Cross, 
 V. Bakken, C. Adamo, J. Jaramillo, R. Gomperts, R. E. Stratmann, 
 O. Yazyev, A. J. Austin, R. Cammi, C. Pomelli, J. W. Ochterski, 
 R. L. Martin, K. Morokuma, V. G. Zakrzewski, G. A. Voth, 
 P. Salvador, J. J. Dannenberg, S. Dapprich, A. D. Daniels, 
 O. Farkas, J. B. Foresman, J. V. Ortiz, J. Cioslowski, 
 and D. J. Fox, Gaussian, Inc., Wallingford CT, 2009.
 
 ******************************************
 Gaussian 09:  EM64L-G09RevA.02 11-Jun-2009
                23-Jun-2017 
 ******************************************
 %mem=1GB
 %nproc=3
 Will use up to    3 processors via shared memory.
 ----------------------------------
 #HF/6-31G* nosymm opt=ModRedundant
 ----------------------------------
 1/18=120,19=15,38=1/1,3;
 2/9=110,12=2,15=1,17=6,18=5,40=1/2;
 3/5=1,6=6,7=1,11=9,16=1,25=1,30=1,71=1/1,2,3;
 4//1;
 5/5=2,38=5/2;
 6/7=2,8=2,9=2,10=2,28=1/1;
 7/30=1/1,2,3,16;
 1/18=20,19=15/3(2);
 2/9=110,15=1/2;
 99//99;
 2/9=110,15=1/2;
 3/5=1,6=6,7=1,11=9,16=1,25=1,30=1,71=1/1,2,3;
 4/5=5,16=3/1;
 5/5=2,38=5/2;
 7/30=1/1,2,3,16;
 1/18=20,19=15/3(-5);
 2/9=110,15=1/2;
 6/7=2,8=2,9=2,10=2,19=2,28=1/1;
 99/9=1/99;
 -----------------
 Mol dihedral scan
 -----------------
 Symbolic Z-matrix:
 Charge =  0 Multiplicity = 1
 C                    -1.20905  -0.23651  -0.01918 
 C                     0.08991   0.55293   0.04491 
 O                     1.222    -0.26249  -0.11001 
 H                    -2.06738   0.42387   0.06207 
 H                    -1.26769  -0.95774   0.79247 
 H                    -1.27637  -0.77802  -0.95628 
 H                     0.14555   1.11298   0.97665 
 H                     0.13148   1.27043  -0.76403 
 H                     1.50713  -0.569     0.7396 
 
 The following ModRedundant input section has been read:
 D    1    2    3    9 -90.00 B                                                
 D    1    2    3    9 S   8 10.000                                            
 Iteration  1 RMS(Cart)=  0.00000082 RMS(Int)=  0.00000072
 Iteration  1 RMS(Cart)=  0.00000040 RMS(Int)=  0.00000036

 GradGradGradGradGradGradGradGradGradGradGradGradGradGradGradGradGradGrad
 Berny optimization.
 Initialization pass.
                           ----------------------------
                           !    Initial Parameters    !
                           ! (Angstroms and Degrees)  !
 --------------------------                            --------------------------
 ! Name  Definition              Value          Derivative Info.                !
 --------------------------------------------------------------------------------
 ! R1    R(1,2)                  1.5214         estimate D2E/DX2                !
 ! R2    R(1,4)                  1.086          estimate D2E/DX2                !
 ! R3    R(1,5)                  1.0874         estimate D2E/DX2                !
 ! R4    R(1,6)                  1.0844         estimate D2E/DX2                !
 ! R5    R(2,3)                  1.4038         estimate D2E/DX2                !
 ! R6    R(2,7)                  1.0885         estimate D2E/DX2                !
 ! R7    R(2,8)                  1.0821         estimate D2E/DX2                !
 ! R8    R(3,9)                  0.9471         estimate D2E/DX2                !
 ! A1    A(2,1,4)              110.862          estimate D2E/DX2                !
 ! A2    A(2,1,5)              111.0247         estimate D2E/DX2                !
 ! A3    A(2,1,6)              110.3972         estimate D2E/DX2                !
 ! A4    A(4,1,5)              107.7495         estimate D2E/DX2                !
 ! A5    A(4,1,6)              108.6168         estimate D2E/DX2                !
 ! A6    A(5,1,6)              108.0878         estimate D2E/DX2                !
 ! A7    A(1,2,3)              112.4885         estimate D2E/DX2                !
 ! A8    A(1,2,7)              110.2841         estimate D2E/DX2                !
 ! A9    A(1,2,8)              110.2043         estimate D2E/DX2                !
 ! A10   A(3,2,7)              110.6163         estimate D2E/DX2                !
 ! A11   A(3,2,8)              105.7643         estimate D2E/DX2                !
 ! A12   A(7,2,8)              107.2643         estimate D2E/DX2                !
 ! A13   A(2,3,9)              109.3761         estimate D2E/DX2                !
 ! D1    D(4,1,2,3)           -177.646          estimate D2E/DX2                !
 ! D2    D(4,1,2,7)             58.3475         estimate D2E/DX2                !
 ! D3    D(4,1,2,8)            -59.8923         estimate D2E/DX2                !
 ! D4    D(5,1,2,3)             62.6188         estimate D2E/DX2                !
 ! D5    D(5,1,2,7)            -61.3877         estimate D2E/DX2                !
 ! D6    D(5,1,2,8)           -179.6276         estimate D2E/DX2                !
 ! D7    D(6,1,2,3)            -57.235          estimate D2E/DX2                !
 ! D8    D(6,1,2,7)            178.7585         estimate D2E/DX2                !
 ! D9    D(6,1,2,8)             60.5186         estimate D2E/DX2                !
 ! D10   D(1,2,3,9)            -89.9999         Scan                            !
 ! D11   D(7,2,3,9)             33.8223         estimate D2E/DX2                !
 ! D12   D(8,2,3,9)            149.6509         estimate D2E/DX2                !
 --------------------------------------------------------------------------------
 Trust Radius=3.00D-01 FncErr=1.00D-07 GrdErr=1.00D-07
 Number of optimizations in scan=   9
 Number of steps in this run=  43 maximum allowed number of steps= 100.
 GradGradGradGradGradGradGradGradGradGradGradGradGradGradGradGradGradGrad

                          Input orientation:                          
 ---------------------------------------------------------------------
 Center     Atomic      Atomic             Coordinates (Angstroms)
 Number     Number       Type             X           Y           Z
 ---------------------------------------------------------------------
      1          6           0       -1.209050   -0.236510   -0.019180
      2          6           0        0.089910    0.552929    0.044911
      3          8           0        1.222000   -0.262491   -0.110010
      4          1           0       -2.067380    0.423870    0.062070
      5          1           0       -1.267691   -0.957740    0.792470
      6          1           0       -1.276370   -0.778020   -0.956280
      7          1           0        0.145551    1.112980    0.976650
      8          1           0        0.131479    1.270429   -0.764030
      9          1           0        1.507132   -0.568998    0.739600
 ---------------------------------------------------------------------
                    Distance matrix (angstroms):
                    1          2          3          4          5
     1  C    0.000000
     2  C    1.521388   0.000000
     3  O    2.432885   1.403758   0.000000
     4  H    1.086017   2.161215   3.364628   0.000000
     5  H    1.087376   2.164266   2.737956   1.755515   0.000000
     6  H    1.084399   2.154189   2.687712   1.762746   1.757982
     7  H    2.155864   1.088527   2.057059   2.491665   2.513774
     8  H    2.150043   1.082090   1.991688   2.496815   3.056976
     9  H    2.839708   1.936449   0.947146   3.771203   2.802420
                    6          7          8          9
     6  H    0.000000
     7  H    3.055153   0.000000
     8  H    2.493018   1.747843   0.000000
     9  H    3.266127   2.176958   2.745326   0.000000
 Symmetry turned off by external request.
 Stoichiometry    C2H6O
 Framework group  C1[X(C2H6O)]
 Deg. of freedom    21
 Full point group                 C1      NOp   1
 Rotational constants (GHZ):     35.5289535      9.1846898      8.2049611
 Standard basis: 6-31G(d) (6D, 7F)
 Integral buffers will be    131072 words long.
 Raffenetti 1 integral format.
 Two-electron integral symmetry is turned off.
    57 basis functions,   108 primitive gaussians,    57 cartesian basis functions
    13 alpha electrons       13 beta electrons
       nuclear repulsion energy        82.1551561643 Hartrees.
 NAtoms=    9 NActive=    9 NUniq=    9 SFac= 7.50D-01 NAtFMM=   80 NAOKFM=F Big=F
 One-electron integrals computed using PRISM.
 NBasis=    57 RedAO= T  NBF=    57
 NBsUse=    57 1.00D-06 NBFU=    57
 Harris functional with IExCor=  205 diagonalized for initial guess.
 ExpMin= 1.61D-01 ExpMax= 5.48D+03 ExpMxC= 8.25D+02 IAcc=1 IRadAn=         1 AccDes= 0.00D+00
 HarFok:  IExCor=  205 AccDes= 0.00D+00 IRadAn=         1 IDoV= 1
 ScaDFX=  1.000000  1.000000  1.000000  1.000000
 FoFCou: FMM=F IPFlag=           0 FMFlag=      100000 FMFlg1=           0
         NFxFlg=           0 DoJE=T BraDBF=F KetDBF=T FulRan=T
         Omega=  0.000000  0.000000  1.000000  0.000000  0.000000 ICntrl=     500 IOpCl=  0
         NMat0=    1 NMatS0=    1 NMatT0=    0 NMatD0=    1 NMtDS0=    0 NMtDT0=    0
         I1Cent=           4 NGrid=           0.
 Symmetry not used in FoFCou.
 Requested convergence on RMS density matrix=1.00D-08 within 128 cycles.
 Requested convergence on MAX density matrix=1.00D-06.
 Requested convergence on             energy=1.00D-06.
 No special actions if energy rises.
 Keep R1 ints in memory in canonical form, NReq=2215640.
 SCF Done:  E(RHF) =  -154.074662615     A.U. after   12 cycles
             Convg  =    0.4164D-08             -V/T =  2.0012

 **********************************************************************

            Population analysis using the SCF density.

 **********************************************************************

 Alpha  occ. eigenvalues --  -20.55301 -11.27057 -11.21112  -1.36027  -1.01055
 Alpha  occ. eigenvalues --   -0.84579  -0.69834  -0.62692  -0.58682  -0.55065
 Alpha  occ. eigenvalues --   -0.52379  -0.47536  -0.43552
 Alpha virt. eigenvalues --    0.22074   0.27088   0.30203   0.31544   0.32270
 Alpha virt. eigenvalues --    0.34255   0.41619   0.41992   0.73010   0.74815
 Alpha virt. eigenvalues --    0.79795   0.81898   0.89816   0.92047   1.07970
 Alpha virt. eigenvalues --    1.13582   1.16745   1.18455   1.18750   1.20461
 Alpha virt. eigenvalues --    1.24355   1.28281   1.30373   1.43947   1.61906
 Alpha virt. eigenvalues --    1.72495   1.80689   1.82561   2.03837   2.08536
 Alpha virt. eigenvalues --    2.22089   2.26724   2.44931   2.49653   2.56241
 Alpha virt. eigenvalues --    2.66907   2.69235   2.77182   2.87620   3.01614
 Alpha virt. eigenvalues --    3.19631   4.16003   4.60371   4.82382
          Condensed to atoms (all electrons):
              1          2          3          4          5          6
     1  C    5.158112   0.344374  -0.056462   0.373388   0.385158   0.390433
     2  C    0.344374   4.751386   0.213493  -0.033195  -0.034294  -0.034001
     3  O   -0.056462   0.213493   8.386883   0.003254   0.000877   0.001226
     4  H    0.373388  -0.033195   0.003254   0.553781  -0.026750  -0.025073
     5  H    0.385158  -0.034294   0.000877  -0.026750   0.548612  -0.028069
     6  H    0.390433  -0.034001   0.001226  -0.025073  -0.028069   0.519016
     7  H   -0.052754   0.402278  -0.034644   0.000521  -0.004037   0.004600
     8  H   -0.052449   0.412136  -0.041285   0.000318   0.004351  -0.004105
     9  H   -0.000366  -0.023827   0.261884  -0.000139   0.001680  -0.000303
              7          8          9
     1  C   -0.052754  -0.052449  -0.000366
     2  C    0.402278   0.412136  -0.023827
     3  O   -0.034644  -0.041285   0.261884
     4  H    0.000521   0.000318  -0.000139
     5  H   -0.004037   0.004351   0.001680
     6  H    0.004600  -0.004105  -0.000303
     7  H    0.591929  -0.036374  -0.008683
     8  H   -0.036374   0.545228   0.005759
     9  H   -0.008683   0.005759   0.327217
 Mulliken atomic charges:
              1
     1  C   -0.489433
     2  C    0.001650
     3  O   -0.735225
     4  H    0.153895
     5  H    0.152473
     6  H    0.176276
     7  H    0.137164
     8  H    0.166421
     9  H    0.436778
 Sum of Mulliken atomic charges =   0.00000
 Mulliken charges with hydrogens summed into heavy atoms:
              1
     1  C   -0.006789
     2  C    0.305235
     3  O   -0.298446
 Sum of Mulliken charges with hydrogens summed into heavy atoms =   0.00000
 Electronic spatial extent (au):  <R**2>=            193.7240
 Charge=              0.0000 electrons
 Dipole moment (field-independent basis, Debye):
    X=             -0.7689    Y=              0.3595    Z=              1.6121  Tot=              1.8220
 Quadrupole moment (field-independent basis, Debye-Ang):
   XX=            -21.0497   YY=            -19.5619   ZZ=            -18.5663
   XY=             -0.5599   XZ=              2.8259   YZ=             -1.1503
 Traceless Quadrupole moment (field-independent basis, Debye-Ang):
   XX=             -1.3237   YY=              0.1641   ZZ=              1.1597
   XY=             -0.5599   XZ=              2.8259   YZ=             -1.1503
 Octapole moment (field-independent basis, Debye-Ang**2):
  XXX=              5.0736  YYY=             -1.5825  ZZZ=              0.7710  XYY=              2.0847
  XXY=             -1.4789  XXZ=              4.2887  XZZ=              3.3546  YZZ=             -1.2598
  YYZ=              0.5156  XYZ=             -1.7200
 Hexadecapole moment (field-independent basis, Debye-Ang**3):
 XXXX=           -156.5216 YYYY=            -53.8790 ZZZZ=            -32.3490 XXXY=             -7.5724
 XXXZ=              6.6655 YYYX=             -3.1722 YYYZ=             -1.7659 ZZZX=              2.1261
 ZZZY=             -1.2541 XXYY=            -33.7315 XXZZ=            -29.7007 YYZZ=            -13.0193
 XXYZ=             -2.4224 YYXZ=              0.8744 ZZXY=             -1.0117
 N-N= 8.215515616432D+01 E-N=-5.260522552541D+02  KE= 1.538900315127D+02
 Calling FoFJK, ICntrl=      2127 FMM=F ISym2X=0 I1Cent= 0 IOpClX= 0 NMat=1 NMatS=1 NMatT=0.
 -------------------------------------------------------------------
 Center     Atomic                   Forces (Hartrees/Bohr)
 Number     Number              X              Y              Z
 -------------------------------------------------------------------
      1        6           0.000589097   -0.001384593    0.001606932
      2        6          -0.000561972    0.002225342   -0.001298451
      3        8           0.002003185   -0.001154455    0.003436474
      4        1           0.000064742    0.000545883   -0.000427986
      5        1           0.000443040    0.000145706   -0.000611021
      6        1           0.000149347    0.000063481    0.000122360
      7        1          -0.000074564    0.000153982   -0.000739464
      8        1          -0.001781120    0.001130877   -0.000175214
      9        1          -0.000831756   -0.001726223   -0.001913629
 -------------------------------------------------------------------
 Cartesian Forces:  Max     0.003436474 RMS     0.001254095

 GradGradGradGradGradGradGradGradGradGradGradGradGradGradGradGradGradGrad
 Berny optimization.
 Internal  Forces:  Max     0.003086793 RMS     0.001067949
 Search for a local minimum.
 Step number   1 out of a maximum of   43 on scan point     1 out of     9
 All quantities printed in internal units (Hartrees-Bohrs-Radians)
 Mixed Optimization -- RFO/linear search
 Second derivative matrix not updated -- first step.
     Eigenvalues ---    0.00483   0.04097   0.05629   0.05661   0.05829
     Eigenvalues ---    0.11772   0.12377   0.16000   0.16000   0.16000
     Eigenvalues ---    0.16000   0.22021   0.30233   0.34983   0.35118
     Eigenvalues ---    0.35277   0.35468   0.35743   0.45003   0.58333
     Eigenvalues --- 1000.000001000.000001000.000001000.000001000.00000
     Eigenvalues --- 1000.000001000.000001000.000001000.000001000.00000
     Eigenvalues --- 1000.000001000.000001000.00000
 RFO step:  Lambda=-1.67463491D-04 EMin= 4.83030953D-03
 Linear search not attempted -- first point.
 Iteration  1 RMS(Cart)=  0.00928025 RMS(Int)=  0.00005223
 Iteration  2 RMS(Cart)=  0.00005411 RMS(Int)=  0.00002290
 Iteration  3 RMS(Cart)=  0.00000000 RMS(Int)=  0.00002290
 Iteration  1 RMS(Cart)=  0.00000558 RMS(Int)=  0.00000494
 Iteration  2 RMS(Cart)=  0.00000274 RMS(Int)=  0.00000552
 Iteration  3 RMS(Cart)=  0.00000134 RMS(Int)=  0.00000616
 Iteration  4 RMS(Cart)=  0.00000066 RMS(Int)=  0.00000653
 Variable       Old X    -DE/DX   Delta X   Delta X   Delta X     New X
                                 (Linear)    (Quad)   (Total)
    R1        2.87501  -0.00077   0.00000  -0.00253  -0.00253   2.87247
    R2        2.05228   0.00025   0.00000   0.00070   0.00070   2.05298
    R3        2.05484  -0.00058   0.00000  -0.00164  -0.00164   2.05320
    R4        2.04922  -0.00015   0.00000  -0.00041  -0.00041   2.04880
    R5        2.65272   0.00245   0.00000   0.00544   0.00544   2.65816
    R6        2.05702  -0.00056   0.00000  -0.00159  -0.00159   2.05543
    R7        2.04485   0.00081   0.00000   0.00227   0.00227   2.04713
    R8        1.78985  -0.00141   0.00000  -0.00241  -0.00241   1.78743
    A1        1.93491  -0.00049   0.00000  -0.00251  -0.00251   1.93239
    A2        1.93775  -0.00015   0.00000  -0.00025  -0.00025   1.93750
    A3        1.92679  -0.00014   0.00000  -0.00211  -0.00212   1.92468
    A4        1.88058   0.00060   0.00000   0.00614   0.00614   1.88672
    A5        1.89572   0.00018   0.00000  -0.00024  -0.00025   1.89548
    A6        1.88649   0.00004   0.00000  -0.00081  -0.00081   1.88568
    A7        1.96329  -0.00309   0.00000  -0.01311  -0.01311   1.95019
    A8        1.92482   0.00040   0.00000   0.00343   0.00343   1.92825
    A9        1.92343  -0.00010   0.00000  -0.00837  -0.00832   1.91511
   A10        1.93062   0.00098   0.00000   0.00437   0.00436   1.93497
   A11        1.84594   0.00241   0.00000   0.01778   0.01773   1.86367
   A12        1.87212  -0.00043   0.00000  -0.00337  -0.00341   1.86870
   A13        1.90897   0.00192   0.00000   0.01197   0.01197   1.92094
    D1       -3.10051  -0.00036   0.00000   0.00418   0.00416  -3.09635
    D2        1.01836   0.00030   0.00000   0.00543   0.00543   1.02378
    D3       -1.04532   0.00064   0.00000   0.01263   0.01264  -1.03268
    D4        1.09290  -0.00069   0.00000  -0.00172  -0.00174   1.09117
    D5       -1.07142  -0.00003   0.00000  -0.00047  -0.00047  -1.07189
    D6       -3.13509   0.00031   0.00000   0.00673   0.00675  -3.12834
    D7       -0.99894  -0.00055   0.00000   0.00084   0.00082  -0.99812
    D8        3.11992   0.00012   0.00000   0.00209   0.00209   3.12202
    D9        1.05625   0.00045   0.00000   0.00929   0.00931   1.06556
   D10       -1.57079   0.00138   0.00000   0.00000   0.00000  -1.57080
   D11        0.59031   0.00038   0.00000  -0.00182  -0.00184   0.58847
   D12        2.61190   0.00170   0.00000   0.00624   0.00634   2.61824
         Item               Value     Threshold  Converged?
 Maximum Force            0.003062     0.000450     NO 
 RMS     Force            0.001029     0.000300     NO 
 Maximum Displacement     0.026225     0.001800     NO 
 RMS     Displacement     0.009286     0.001200     NO 
 Predicted change in Energy=-8.411098D-05
 GradGradGradGradGradGradGradGradGradGradGradGradGradGradGradGradGradGrad

                          Input orientation:                          
 ---------------------------------------------------------------------
 Center     Atomic      Atomic             Coordinates (Angstroms)
 Number     Number       Type             X           Y           Z
 ---------------------------------------------------------------------
      1          6           0       -1.205503   -0.235801   -0.018091
      2          6           0        0.089290    0.557881    0.046122
      3          8           0        1.216030   -0.270131   -0.107122
      4          1           0       -2.065070    0.424389    0.056324
      5          1           0       -1.261667   -0.955916    0.793561
      6          1           0       -1.266934   -0.779413   -0.954126
      7          1           0        0.145276    1.120208    0.975483
      8          1           0        0.117602    1.277487   -0.763128
      9          1           0        1.506556   -0.582254    0.737177
 ---------------------------------------------------------------------
                    Distance matrix (angstroms):
                    1          2          3          4          5
     1  C    0.000000
     2  C    1.520047   0.000000
     3  O    2.423412   1.406638   0.000000
     4  H    1.086390   2.158515   3.357780   0.000000
     5  H    1.086508   2.162250   2.724061   1.759039   0.000000
     6  H    1.084180   2.151323   2.672431   1.762716   1.756585
     7  H    2.156514   1.087684   2.061938   2.492919   2.514532
     8  H    2.143765   1.083292   2.007987   2.482606   3.051844
     9  H    2.836498   1.945792   0.945868   3.772718   2.793897
                    6          7          8          9
     6  H    0.000000
     7  H    3.053896   0.000000
     8  H    2.486816   1.745930   0.000000
     9  H    3.254477   2.192772   2.763828   0.000000
 Symmetry turned off by external request.
 Stoichiometry    C2H6O
 Framework group  C1[X(C2H6O)]
 Deg. of freedom    21
 Full point group                 C1      NOp   1
 Rotational constants (GHZ):     35.1445487      9.2512452      8.2330274
 Standard basis: 6-31G(d) (6D, 7F)
 Integral buffers will be    131072 words long.
 Raffenetti 1 integral format.
 Two-electron integral symmetry is turned off.
    57 basis functions,   108 primitive gaussians,    57 cartesian basis functions
    13 alpha electrons       13 beta electrons
       nuclear repulsion energy        82.1766695739 Hartrees.
 NAtoms=    9 NActive=    9 NUniq=    9 SFac= 7.50D-01 NAtFMM=   80 NAOKFM=F Big=F
 One-electron integrals computed using PRISM.
 NBasis=    57 RedAO= T  NBF=    57
 NBsUse=    57 1.00D-06 NBFU=    57
 Initial guess read from the read-write file.
 B after Tr=     0.000000    0.000000    0.000000
         Rot=    1.000000    0.000000    0.000000    0.000000 Ang=   0.00 deg.
 Harris functional with IExCor=  205 diagonalized for initial guess.
 ExpMin= 1.61D-01 ExpMax= 5.48D+03 ExpMxC= 8.25D+02 IAcc=1 IRadAn=         1 AccDes= 0.00D+00
 HarFok:  IExCor=  205 AccDes= 0.00D+00 IRadAn=         1 IDoV= 1
 ScaDFX=  1.000000  1.000000  1.000000  1.000000
 FoFCou: FMM=F IPFlag=           0 FMFlag=      100000 FMFlg1=           0
         NFxFlg=           0 DoJE=T BraDBF=F KetDBF=T FulRan=T
         Omega=  0.000000  0.000000  1.000000  0.000000  0.000000 ICntrl=     500 IOpCl=  0
         NMat0=    1 NMatS0=    1 NMatT0=    0 NMatD0=    1 NMtDS0=    0 NMtDT0=    0
         I1Cent=           4 NGrid=           0.
 Symmetry not used in FoFCou.
 Requested convergence on RMS density matrix=1.00D-08 within 128 cycles.
 Requested convergence on MAX density matrix=1.00D-06.
 Requested convergence on             energy=1.00D-06.
 No special actions if energy rises.
 Keep R1 ints in memory in canonical form, NReq=2215640.
 SCF Done:  E(RHF) =  -154.074716463     A.U. after    9 cycles
             Convg  =    0.7180D-08             -V/T =  2.0012
 Calling FoFJK, ICntrl=      2127 FMM=F ISym2X=0 I1Cent= 0 IOpClX= 0 NMat=1 NMatS=1 NMatT=0.
 -------------------------------------------------------------------
 Center     Atomic                   Forces (Hartrees/Bohr)
 Number     Number              X              Y              Z
 -------------------------------------------------------------------
      1        6          -0.000501857   -0.000255616    0.001453058
      2        6          -0.000416992   -0.000688104   -0.000931585
      3        8           0.001358568    0.002400637   -0.000215106
      4        1          -0.000209434   -0.000133597   -0.000076628
      5        1          -0.000022364    0.000037972   -0.000074185
      6        1           0.000145805    0.000064636   -0.000030043
      7        1           0.000329890   -0.000079851   -0.000072858
      8        1           0.000874845   -0.000330929   -0.000055729
      9        1          -0.001558460   -0.001015149    0.000003076
 -------------------------------------------------------------------
 Cartesian Forces:  Max     0.002400637 RMS     0.000773592

 GradGradGradGradGradGradGradGradGradGradGradGradGradGradGradGradGradGrad
 Berny optimization.
 Using GEDIIS/GDIIS optimizer.
 Internal  Forces:  Max     0.001523584 RMS     0.000542875
 Search for a local minimum.
 Step number   2 out of a maximum of   43 on scan point     1 out of     9
 All quantities printed in internal units (Hartrees-Bohrs-Radians)
 Mixed Optimization -- En-DIIS/RFO-DIIS
 Update second derivatives using D2CorX and points    1    2
 DE= -5.38D-05 DEPred=-8.41D-05 R= 6.40D-01
 SS=  1.41D+00  RLast= 3.51D-02 DXNew= 5.0454D-01 1.0538D-01
 Trust test= 6.40D-01 RLast= 3.51D-02 DXMaxT set to 3.00D-01
 Use linear search instead of GDIIS.
     Eigenvalues ---    0.00480   0.04168   0.05510   0.05691   0.06024
     Eigenvalues ---    0.12038   0.12915   0.15904   0.16000   0.16000
     Eigenvalues ---    0.17793   0.23693   0.30956   0.34839   0.35069
     Eigenvalues ---    0.35264   0.35465   0.35797   0.46993   0.57875
     Eigenvalues --- 1000.000001000.000001000.000001000.000001000.00000
     Eigenvalues --- 1000.000001000.000001000.000001000.000001000.00000
     Eigenvalues --- 1000.000001000.000001000.00000
 RFO step:  Lambda=-6.64758166D-06 EMin= 4.80227630D-03
 Quartic linear search produced a step of -0.26279.
 Iteration  1 RMS(Cart)=  0.00256583 RMS(Int)=  0.00000689
 Iteration  2 RMS(Cart)=  0.00000404 RMS(Int)=  0.00000535
 Iteration  3 RMS(Cart)=  0.00000000 RMS(Int)=  0.00000535
 Iteration  1 RMS(Cart)=  0.00000127 RMS(Int)=  0.00000112
 Iteration  2 RMS(Cart)=  0.00000062 RMS(Int)=  0.00000126
 Variable       Old X    -DE/DX   Delta X   Delta X   Delta X     New X
                                 (Linear)    (Quad)   (Total)
    R1        2.87247   0.00060   0.00067   0.00069   0.00136   2.87383
    R2        2.05298   0.00008  -0.00019   0.00038   0.00019   2.05317
    R3        2.05320  -0.00008   0.00043  -0.00066  -0.00023   2.05297
    R4        2.04880  -0.00001   0.00011  -0.00016  -0.00005   2.04876
    R5        2.65816  -0.00095  -0.00143   0.00008  -0.00135   2.65681
    R6        2.05543  -0.00009   0.00042  -0.00066  -0.00024   2.05518
    R7        2.04713  -0.00016  -0.00060   0.00036  -0.00023   2.04689
    R8        1.78743  -0.00014   0.00063  -0.00091  -0.00027   1.78716
    A1        1.93239   0.00039   0.00066   0.00131   0.00198   1.93437
    A2        1.93750   0.00004   0.00006   0.00016   0.00023   1.93773
    A3        1.92468  -0.00032   0.00056  -0.00244  -0.00189   1.92279
    A4        1.88672  -0.00013  -0.00161   0.00186   0.00024   1.88696
    A5        1.89548  -0.00006   0.00006  -0.00046  -0.00039   1.89509
    A6        1.88568   0.00007   0.00021  -0.00041  -0.00019   1.88549
    A7        1.95019   0.00062   0.00344  -0.00216   0.00128   1.95147
    A8        1.92825  -0.00053  -0.00090   0.00303   0.00213   1.93038
    A9        1.91511   0.00116   0.00219   0.00059   0.00276   1.91788
   A10        1.93497  -0.00030  -0.00114   0.00001  -0.00114   1.93384
   A11        1.86367  -0.00093  -0.00466  -0.00114  -0.00579   1.85788
   A12        1.86870  -0.00002   0.00090  -0.00041   0.00049   1.86919
   A13        1.92094  -0.00115  -0.00315  -0.00169  -0.00484   1.91611
    D1       -3.09635  -0.00004  -0.00109   0.00557   0.00448  -3.09187
    D2        1.02378   0.00029  -0.00143   0.00489   0.00347   1.02725
    D3       -1.03268  -0.00007  -0.00332   0.00320  -0.00013  -1.03281
    D4        1.09117  -0.00016   0.00046   0.00226   0.00272   1.09388
    D5       -1.07189   0.00017   0.00012   0.00158   0.00170  -1.07018
    D6       -3.12834  -0.00019  -0.00177  -0.00012  -0.00190  -3.13024
    D7       -0.99812  -0.00007  -0.00022   0.00425   0.00404  -0.99407
    D8        3.12202   0.00027  -0.00055   0.00358   0.00303   3.12504
    D9        1.06556  -0.00009  -0.00245   0.00188  -0.00057   1.06499
   D10       -1.57080   0.00152   0.00000   0.00000   0.00000  -1.57079
   D11        0.58847   0.00106   0.00048   0.00238   0.00287   0.59133
   D12        2.61824   0.00034  -0.00167   0.00125  -0.00044   2.61780
         Item               Value     Threshold  Converged?
 Maximum Force            0.001147     0.000450     NO 
 RMS     Force            0.000402     0.000300     NO 
 Maximum Displacement     0.006990     0.001800     NO 
 RMS     Displacement     0.002566     0.001200     NO 
 Predicted change in Energy=-1.109652D-05
 GradGradGradGradGradGradGradGradGradGradGradGradGradGradGradGradGradGrad

                          Input orientation:                          
 ---------------------------------------------------------------------
 Center     Atomic      Atomic             Coordinates (Angstroms)
 Number     Number       Type             X           Y           Z
 ---------------------------------------------------------------------
      1          6           0       -1.206608   -0.235982   -0.017314
      2          6           0        0.089085    0.557596    0.047020
      3          8           0        1.215918   -0.268504   -0.109292
      4          1           0       -2.067347    0.423080    0.055012
      5          1           0       -1.263353   -0.956001    0.794219
      6          1           0       -1.265697   -0.779930   -0.953275
      7          1           0        0.148011    1.119412    0.976356
      8          1           0        0.121301    1.276677   -0.762387
      9          1           0        1.504269   -0.579897    0.735860
 ---------------------------------------------------------------------
                    Distance matrix (angstroms):
                    1          2          3          4          5
     1  C    0.000000
     2  C    1.520765   0.000000
     3  O    2.424489   1.405925   0.000000
     4  H    1.086492   2.160638   3.359332   0.000000
     5  H    1.086386   2.162954   2.726860   1.759176   0.000000
     6  H    1.084156   2.150581   2.670632   1.762532   1.756344
     7  H    2.158580   1.087555   2.060428   2.498313   2.516438
     8  H    2.146302   1.083169   2.003073   2.487357   3.053709
     9  H    2.834503   1.941941   0.945724   3.771732   2.793670
                    6          7          8          9
     6  H    0.000000
     7  H    3.054431   0.000000
     8  H    2.487937   1.746045   0.000000
     9  H    3.250524   2.187447   2.757574   0.000000
 Symmetry turned off by external request.
 Stoichiometry    C2H6O
 Framework group  C1[X(C2H6O)]
 Deg. of freedom    21
 Full point group                 C1      NOp   1
 Rotational constants (GHZ):     35.1884444      9.2449518      8.2310737
 Standard basis: 6-31G(d) (6D, 7F)
 Integral buffers will be    131072 words long.
 Raffenetti 1 integral format.
 Two-electron integral symmetry is turned off.
    57 basis functions,   108 primitive gaussians,    57 cartesian basis functions
    13 alpha electrons       13 beta electrons
       nuclear repulsion energy        82.1817995249 Hartrees.
 NAtoms=    9 NActive=    9 NUniq=    9 SFac= 7.50D-01 NAtFMM=   80 NAOKFM=F Big=F
 One-electron integrals computed using PRISM.
 NBasis=    57 RedAO= T  NBF=    57
 NBsUse=    57 1.00D-06 NBFU=    57
 Initial guess read from the read-write file.
 B after Tr=     0.000000    0.000000    0.000000
         Rot=    1.000000    0.000000    0.000000    0.000000 Ang=   0.00 deg.
 Requested convergence on RMS density matrix=1.00D-08 within 128 cycles.
 Requested convergence on MAX density matrix=1.00D-06.
 Requested convergence on             energy=1.00D-06.
 No special actions if energy rises.
 Keep R1 ints in memory in canonical form, NReq=2215640.
 SCF Done:  E(RHF) =  -154.074727746     A.U. after    9 cycles
             Convg  =    0.2609D-08             -V/T =  2.0012
 Calling FoFJK, ICntrl=      2127 FMM=F ISym2X=0 I1Cent= 0 IOpClX= 0 NMat=1 NMatS=1 NMatT=0.
 -------------------------------------------------------------------
 Center     Atomic                   Forces (Hartrees/Bohr)
 Number     Number              X              Y              Z
 -------------------------------------------------------------------
      1        6          -0.000075568   -0.000049185    0.001199835
      2        6          -0.000441994   -0.000079629   -0.001734809
      3        8           0.001453113    0.001703309    0.000589464
      4        1          -0.000000472   -0.000071481   -0.000009211
      5        1          -0.000000199    0.000018323    0.000021052
      6        1           0.000065930    0.000015618   -0.000037186
      7        1           0.000050015   -0.000027907    0.000012528
      8        1          -0.000014414   -0.000010362    0.000026969
      9        1          -0.001036411   -0.001498685   -0.000068642
 -------------------------------------------------------------------
 Cartesian Forces:  Max     0.001734809 RMS     0.000703447

 GradGradGradGradGradGradGradGradGradGradGradGradGradGradGradGradGradGrad
 Berny optimization.
 Using GEDIIS/GDIIS optimizer.
 Internal  Forces:  Max     0.001552658 RMS     0.000382179
 Search for a local minimum.
 Step number   3 out of a maximum of   43 on scan point     1 out of     9
 All quantities printed in internal units (Hartrees-Bohrs-Radians)
 Mixed Optimization -- En-DIIS/RFO-DIIS
 Swaping is turned off.
 Update second derivatives using D2CorX and points    1    2    3
 DE= -1.13D-05 DEPred=-1.11D-05 R= 1.02D+00
 SS=  1.41D+00  RLast= 1.28D-02 DXNew= 5.0454D-01 3.8441D-02
 Trust test= 1.02D+00 RLast= 1.28D-02 DXMaxT set to 3.00D-01
     Eigenvalues ---    0.00474   0.04204   0.05420   0.05696   0.05983
     Eigenvalues ---    0.11820   0.13026   0.15455   0.15999   0.16000
     Eigenvalues ---    0.18295   0.22986   0.30780   0.34856   0.35076
     Eigenvalues ---    0.35316   0.35474   0.35761   0.48509   0.58540
     Eigenvalues --- 1000.000001000.000001000.000001000.000001000.00000
     Eigenvalues --- 1000.000001000.000001000.000001000.000001000.00000
     Eigenvalues --- 1000.000001000.000001000.00000
 En-DIIS/RFO-DIIS IScMMF=        0 using points:     3    2
 RFO step:  Lambda=-3.25443516D-07.
 DIIS coeffs:      1.01293     -0.01293
 Iteration  1 RMS(Cart)=  0.00073397 RMS(Int)=  0.00000047
 Iteration  2 RMS(Cart)=  0.00000038 RMS(Int)=  0.00000021
 Iteration  1 RMS(Cart)=  0.00000042 RMS(Int)=  0.00000038
 Variable       Old X    -DE/DX   Delta X   Delta X   Delta X     New X
                                  (DIIS)     (GDIIS)  (Total)
    R1        2.87383   0.00000   0.00002   0.00002   0.00004   2.87387
    R2        2.05317  -0.00004   0.00000  -0.00012  -0.00012   2.05306
    R3        2.05297   0.00000   0.00000   0.00000   0.00000   2.05297
    R4        2.04876   0.00002   0.00000   0.00006   0.00006   2.04881
    R5        2.65681   0.00016  -0.00002   0.00036   0.00034   2.65715
    R6        2.05518   0.00000   0.00000  -0.00001  -0.00002   2.05516
    R7        2.04689  -0.00003   0.00000  -0.00007  -0.00007   2.04682
    R8        1.78716   0.00012   0.00000   0.00019   0.00018   1.78734
    A1        1.93437   0.00011   0.00003   0.00077   0.00079   1.93516
    A2        1.93773  -0.00001   0.00000  -0.00009  -0.00009   1.93763
    A3        1.92279  -0.00012  -0.00002  -0.00088  -0.00090   1.92189
    A4        1.88696  -0.00003   0.00000  -0.00003  -0.00003   1.88694
    A5        1.89509   0.00001  -0.00001   0.00006   0.00005   1.89514
    A6        1.88549   0.00005   0.00000   0.00019   0.00018   1.88567
    A7        1.95147   0.00005   0.00002   0.00027   0.00028   1.95176
    A8        1.93038  -0.00062   0.00003   0.00016   0.00019   1.93057
    A9        1.91788   0.00065   0.00004  -0.00004   0.00000   1.91788
   A10        1.93384  -0.00003  -0.00001  -0.00056  -0.00057   1.93326
   A11        1.85788  -0.00001  -0.00007   0.00011   0.00004   1.85792
   A12        1.86919   0.00000   0.00001   0.00004   0.00005   1.86924
   A13        1.91611   0.00003  -0.00006   0.00021   0.00014   1.91625
    D1       -3.09187  -0.00028   0.00006   0.00126   0.00132  -3.09055
    D2        1.02725   0.00017   0.00004   0.00167   0.00172   1.02897
    D3       -1.03281   0.00015   0.00000   0.00155   0.00154  -1.03126
    D4        1.09388  -0.00030   0.00004   0.00085   0.00089   1.09477
    D5       -1.07018   0.00015   0.00002   0.00126   0.00129  -1.06890
    D6       -3.13024   0.00013  -0.00002   0.00114   0.00111  -3.12913
    D7       -0.99407  -0.00028   0.00005   0.00125   0.00131  -0.99277
    D8        3.12504   0.00017   0.00004   0.00166   0.00170   3.12674
    D9        1.06499   0.00015  -0.00001   0.00154   0.00153   1.06652
   D10       -1.57079   0.00155   0.00000   0.00000   0.00000  -1.57079
   D11        0.59133   0.00076   0.00004   0.00000   0.00003   0.59137
   D12        2.61780   0.00075  -0.00001  -0.00018  -0.00019   2.61761
         Item               Value     Threshold  Converged?
 Maximum Force            0.000156     0.000450     YES
 RMS     Force            0.000051     0.000300     YES
 Maximum Displacement     0.001759     0.001800     YES
 RMS     Displacement     0.000734     0.001200     YES
 Predicted change in Energy=-2.300198D-07
 Optimization completed.
    -- Stationary point found.
                           ----------------------------
                           !   Optimized Parameters   !
                           ! (Angstroms and Degrees)  !
 --------------------------                            --------------------------
 ! Name  Definition              Value          Derivative Info.                !
 --------------------------------------------------------------------------------
 ! R1    R(1,2)                  1.5208         -DE/DX =    0.0                 !
 ! R2    R(1,4)                  1.0865         -DE/DX =    0.0                 !
 ! R3    R(1,5)                  1.0864         -DE/DX =    0.0                 !
 ! R4    R(1,6)                  1.0842         -DE/DX =    0.0                 !
 ! R5    R(2,3)                  1.4059         -DE/DX =    0.0002              !
 ! R6    R(2,7)                  1.0876         -DE/DX =    0.0                 !
 ! R7    R(2,8)                  1.0832         -DE/DX =    0.0                 !
 ! R8    R(3,9)                  0.9457         -DE/DX =    0.0001              !
 ! A1    A(2,1,4)              110.8312         -DE/DX =    0.0001              !
 ! A2    A(2,1,5)              111.0235         -DE/DX =    0.0                 !
 ! A3    A(2,1,6)              110.1678         -DE/DX =   -0.0001              !
 ! A4    A(4,1,5)              108.115          -DE/DX =    0.0                 !
 ! A5    A(4,1,6)              108.5805         -DE/DX =    0.0                 !
 ! A6    A(5,1,6)              108.0304         -DE/DX =    0.0001              !
 ! A7    A(1,2,3)              111.8111         -DE/DX =    0.0                 !
 ! A8    A(1,2,7)              110.6025         -DE/DX =   -0.0006              !
 ! A9    A(1,2,8)              109.8862         -DE/DX =    0.0006              !
 ! A10   A(3,2,7)              110.8007         -DE/DX =    0.0                 !
 ! A11   A(3,2,8)              106.4489         -DE/DX =    0.0                 !
 ! A12   A(7,2,8)              107.097          -DE/DX =    0.0                 !
 ! A13   A(2,3,9)              109.7848         -DE/DX =    0.0                 !
 ! D1    D(4,1,2,3)           -177.1509         -DE/DX =   -0.0003              !
 ! D2    D(4,1,2,7)             58.8571         -DE/DX =    0.0002              !
 ! D3    D(4,1,2,8)            -59.1755         -DE/DX =    0.0001              !
 ! D4    D(5,1,2,3)             62.675          -DE/DX =   -0.0003              !
 ! D5    D(5,1,2,7)            -61.317          -DE/DX =    0.0002              !
 ! D6    D(5,1,2,8)           -179.3496         -DE/DX =    0.0001              !
 ! D7    D(6,1,2,3)            -56.9563         -DE/DX =   -0.0003              !
 ! D8    D(6,1,2,7)            179.0517         -DE/DX =    0.0002              !
 ! D9    D(6,1,2,8)             61.0192         -DE/DX =    0.0001              !
 ! D10   D(1,2,3,9)            -89.9998         -DE/DX =    0.0016              !
 ! D11   D(7,2,3,9)             33.8809         -DE/DX =    0.0008              !
 ! D12   D(8,2,3,9)            149.9889         -DE/DX =    0.0007              !
 --------------------------------------------------------------------------------
 Iteration  1 RMS(Cart)=  0.02406847 RMS(Int)=  0.02129583
 Iteration  2 RMS(Cart)=  0.00068232 RMS(Int)=  0.02128353
 Iteration  3 RMS(Cart)=  0.00000542 RMS(Int)=  0.02128353
 Iteration  4 RMS(Cart)=  0.00000031 RMS(Int)=  0.02128353
 Iteration  1 RMS(Cart)=  0.01190338 RMS(Int)=  0.01044317
 Iteration  2 RMS(Cart)=  0.00586759 RMS(Int)=  0.01167285
 Iteration  3 RMS(Cart)=  0.00288470 RMS(Int)=  0.01302172
 Iteration  4 RMS(Cart)=  0.00141670 RMS(Int)=  0.01381013
 Iteration  5 RMS(Cart)=  0.00069543 RMS(Int)=  0.01422174
 Iteration  6 RMS(Cart)=  0.00034130 RMS(Int)=  0.01442908
 Iteration  7 RMS(Cart)=  0.00016749 RMS(Int)=  0.01453205
 Iteration  8 RMS(Cart)=  0.00008219 RMS(Int)=  0.01458286
 Iteration  9 RMS(Cart)=  0.00004033 RMS(Int)=  0.01460786
 Iteration 10 RMS(Cart)=  0.00001979 RMS(Int)=  0.01462015
 Iteration 11 RMS(Cart)=  0.00000971 RMS(Int)=  0.01462618
 Iteration 12 RMS(Cart)=  0.00000476 RMS(Int)=  0.01462914
 Iteration 13 RMS(Cart)=  0.00000234 RMS(Int)=  0.01463059
 Iteration 14 RMS(Cart)=  0.00000115 RMS(Int)=  0.01463131
 Iteration 15 RMS(Cart)=  0.00000056 RMS(Int)=  0.01463166
 GradGradGradGradGradGradGradGradGradGradGradGradGradGradGradGradGradGrad

                          Input orientation:                          
 ---------------------------------------------------------------------
 Center     Atomic      Atomic             Coordinates (Angstroms)
 Number     Number       Type             X           Y           Z
 ---------------------------------------------------------------------
      1          6           0       -1.192049   -0.237609   -0.009573
      2          6           0        0.091576    0.577607    0.016683
      3          8           0        1.227086   -0.242092   -0.109536
      4          1           0       -2.062366    0.407974    0.068714
      5          1           0       -1.221176   -0.945222    0.814291
      6          1           0       -1.259359   -0.797464   -0.935599
      7          1           0        0.099486    1.111241    0.964438
      8          1           0        0.161853    1.320130   -0.768875
      9          1           0        1.430529   -0.638114    0.725656
 ---------------------------------------------------------------------
                    Distance matrix (angstroms):
                    1          2          3          4          5
     1  C    0.000000
     2  C    1.520842   0.000000
     3  O    2.421204   1.406137   0.000000
     4  H    1.086442   2.161237   3.357805   0.000000
     5  H    1.086424   2.162985   2.709583   1.759155   0.000000
     6  H    1.084201   2.150044   2.678289   1.762539   1.756532
     7  H    2.106218   1.087688   2.063107   2.443462   2.448618
     8  H    2.199124   1.083227   2.002495   2.545728   3.090470
     9  H    2.752977   1.942528   0.946451   3.704886   2.670901
                    6          7          8          9
     6  H    0.000000
     7  H    3.016580   0.000000
     8  H    2.555748   1.746968   0.000000
     9  H    3.165542   2.211093   2.770899   0.000000
 Symmetry turned off by external request.
 Stoichiometry    C2H6O
 Framework group  C1[X(C2H6O)]
 Deg. of freedom    21
 Full point group                 C1      NOp   1
 Rotational constants (GHZ):     34.8186619      9.3161590      8.2578613
 Standard basis: 6-31G(d) (6D, 7F)
 Integral buffers will be    131072 words long.
 Raffenetti 1 integral format.
 Two-electron integral symmetry is turned off.
    57 basis functions,   108 primitive gaussians,    57 cartesian basis functions
    13 alpha electrons       13 beta electrons
       nuclear repulsion energy        82.2382246467 Hartrees.
 NAtoms=    9 NActive=    9 NUniq=    9 SFac= 7.50D-01 NAtFMM=   80 NAOKFM=F Big=F
 One-electron integrals computed using PRISM.
 NBasis=    57 RedAO= T  NBF=    57
 NBsUse=    57 1.00D-06 NBFU=    57
 Initial guess read from the read-write file.
 B after Tr=     0.000000    0.000000    0.000000
         Rot=    1.000000    0.000000    0.000000    0.000000 Ang=   0.00 deg.
 Harris functional with IExCor=  205 diagonalized for initial guess.
 ExpMin= 1.61D-01 ExpMax= 5.48D+03 ExpMxC= 8.25D+02 IAcc=1 IRadAn=         1 AccDes= 0.00D+00
 HarFok:  IExCor=  205 AccDes= 0.00D+00 IRadAn=         1 IDoV= 1
 ScaDFX=  1.000000  1.000000  1.000000  1.000000
 FoFCou: FMM=F IPFlag=           0 FMFlag=      100000 FMFlg1=           0
         NFxFlg=           0 DoJE=T BraDBF=F KetDBF=T FulRan=T
         Omega=  0.000000  0.000000  1.000000  0.000000  0.000000 ICntrl=     500 IOpCl=  0
         NMat0=    1 NMatS0=    1 NMatT0=    0 NMatD0=    1 NMtDS0=    0 NMtDT0=    0
         I1Cent=           4 NGrid=           0.
 Symmetry not used in FoFCou.
 Requested convergence on RMS density matrix=1.00D-08 within 128 cycles.
 Requested convergence on MAX density matrix=1.00D-06.
 Requested convergence on             energy=1.00D-06.
 No special actions if energy rises.
 Keep R1 ints in memory in canonical form, NReq=2215640.
 SCF Done:  E(RHF) =  -154.074158437     A.U. after   11 cycles
             Convg  =    0.2682D-08             -V/T =  2.0012
 Calling FoFJK, ICntrl=      2127 FMM=F ISym2X=0 I1Cent= 0 IOpClX= 0 NMat=1 NMatS=1 NMatT=0.
 -------------------------------------------------------------------
 Center     Atomic                   Forces (Hartrees/Bohr)
 Number     Number              X              Y              Z
 -------------------------------------------------------------------
      1        6          -0.001185247    0.001596961   -0.009764043
      2        6           0.000025355   -0.003470243    0.012845429
      3        8           0.001787109    0.002728467   -0.000643991
      4        1          -0.000162970   -0.000265353    0.000117476
      5        1           0.001255749    0.000907804    0.000231905
      6        1          -0.001381839   -0.000961862   -0.000033761
      7        1           0.005732522    0.003880596   -0.000562322
      8        1          -0.004858800   -0.003623061   -0.001696810
      9        1          -0.001211879   -0.000793310   -0.000493883
 -------------------------------------------------------------------
 Cartesian Forces:  Max     0.012845429 RMS     0.003766258

 GradGradGradGradGradGradGradGradGradGradGradGradGradGradGradGradGradGrad
 Berny optimization.
 Internal  Forces:  Max     0.008598719 RMS     0.002725877
 Search for a local minimum.
 Step number   1 out of a maximum of   43 on scan point     2 out of     9
 All quantities printed in internal units (Hartrees-Bohrs-Radians)
 Mixed Optimization -- RFO/linear search
 Second derivative matrix not updated -- first step.
     Eigenvalues ---    0.00474   0.04258   0.05420   0.05699   0.05939
     Eigenvalues ---    0.11581   0.13113   0.15451   0.15999   0.16000
     Eigenvalues ---    0.18303   0.22713   0.30766   0.34857   0.35076
     Eigenvalues ---    0.35316   0.35474   0.35760   0.48487   0.58540
     Eigenvalues --- 1000.000001000.000001000.000001000.000001000.00000
     Eigenvalues --- 1000.000001000.000001000.000001000.000001000.00000
     Eigenvalues --- 1000.000001000.000001000.00000
 RFO step:  Lambda=-2.29854048D-03 EMin= 4.74192685D-03
 Linear search not attempted -- first point.
 Iteration  1 RMS(Cart)=  0.02972001 RMS(Int)=  0.00106648
 Iteration  2 RMS(Cart)=  0.00086275 RMS(Int)=  0.00063241
 Iteration  3 RMS(Cart)=  0.00000069 RMS(Int)=  0.00063241
 Iteration  1 RMS(Cart)=  0.00001843 RMS(Int)=  0.00001635
 Iteration  2 RMS(Cart)=  0.00000906 RMS(Int)=  0.00001828
 Iteration  3 RMS(Cart)=  0.00000445 RMS(Int)=  0.00002040
 Iteration  4 RMS(Cart)=  0.00000219 RMS(Int)=  0.00002164
 Iteration  5 RMS(Cart)=  0.00000108 RMS(Int)=  0.00002228
 Iteration  6 RMS(Cart)=  0.00000053 RMS(Int)=  0.00002261
 Variable       Old X    -DE/DX   Delta X   Delta X   Delta X     New X
                                 (Linear)    (Quad)   (Total)
    R1        2.87397   0.00072   0.00000   0.00232   0.00232   2.87629
    R2        2.05308  -0.00002   0.00000  -0.00006  -0.00006   2.05302
    R3        2.05304  -0.00045   0.00000  -0.00153  -0.00153   2.05151
    R4        2.04884   0.00061   0.00000   0.00171   0.00171   2.05056
    R5        2.65721  -0.00056   0.00000  -0.00037  -0.00037   2.65685
    R6        2.05543   0.00146   0.00000   0.00386   0.00386   2.05929
    R7        2.04700  -0.00157   0.00000  -0.00418  -0.00418   2.04282
    R8        1.78853  -0.00036   0.00000  -0.00079  -0.00079   1.78775
    A1        1.93516   0.00043   0.00000   0.00354   0.00345   1.93861
    A2        1.93763  -0.00275   0.00000  -0.01990  -0.01987   1.91776
    A3        1.92190   0.00269   0.00000   0.01784   0.01782   1.93973
    A4        1.88694   0.00060   0.00000  -0.00090  -0.00095   1.88599
    A5        1.89510  -0.00099   0.00000  -0.00060  -0.00072   1.89438
    A6        1.88568  -0.00001   0.00000  -0.00005   0.00005   1.88573
    A7        1.94718   0.00242   0.00000   0.00897   0.00754   1.95471
    A8        1.85893   0.00800   0.00000   0.07488   0.07492   1.93385
    A9        1.99289  -0.00860   0.00000  -0.07236  -0.07212   1.92077
   A10        1.93729  -0.00379   0.00000  -0.00287  -0.00463   1.93266
   A11        1.85678   0.00174   0.00000  -0.00871  -0.00984   1.84695
   A12        1.87039  -0.00014   0.00000  -0.00079   0.00074   1.87112
   A13        1.91590  -0.00066   0.00000  -0.00320  -0.00320   1.91270
    D1       -3.12186   0.00084   0.00000   0.03238   0.03256  -3.08930
    D2        1.04482  -0.00108   0.00000  -0.01747  -0.01841   1.02641
    D3       -1.01587  -0.00129   0.00000  -0.02480  -0.02410  -1.03997
    D4        1.06344   0.00163   0.00000   0.04439   0.04455   1.10799
    D5       -1.05306  -0.00029   0.00000  -0.00546  -0.00642  -1.05948
    D6       -3.11375  -0.00050   0.00000  -0.01279  -0.01211  -3.12586
    D7       -1.02412   0.00165   0.00000   0.04558   0.04584  -0.97828
    D8       -3.14062  -0.00027   0.00000  -0.00427  -0.00513   3.13743
    D9        1.08188  -0.00048   0.00000  -0.01160  -0.01082   1.07106
   D10       -1.39626  -0.00491   0.00000   0.00000   0.00000  -1.39626
   D11        0.67403   0.00423   0.00000   0.09817   0.09785   0.77188
   D12        2.70307   0.00310   0.00000   0.09075   0.09080   2.79387
         Item               Value     Threshold  Converged?
 Maximum Force            0.006545     0.000450     NO 
 RMS     Force            0.002487     0.000300     NO 
 Maximum Displacement     0.079458     0.001800     NO 
 RMS     Displacement     0.029641     0.001200     NO 
 Predicted change in Energy=-1.193140D-03
 GradGradGradGradGradGradGradGradGradGradGradGradGradGradGradGradGradGrad

                          Input orientation:                          
 ---------------------------------------------------------------------
 Center     Atomic      Atomic             Coordinates (Angstroms)
 Number     Number       Type             X           Y           Z
 ---------------------------------------------------------------------
      1          6           0       -1.193969   -0.236391   -0.018123
      2          6           0        0.090711    0.577175    0.048209
      3          8           0        1.232695   -0.228358   -0.105612
      4          1           0       -2.067290    0.406264    0.049686
      5          1           0       -1.228655   -0.939639    0.808190
      6          1           0       -1.252168   -0.801181   -0.942830
      7          1           0        0.141534    1.145235    0.976777
      8          1           0        0.120773    1.289406   -0.764452
      9          1           0        1.431950   -0.656061    0.714356
 ---------------------------------------------------------------------
                    Distance matrix (angstroms):
                    1          2          3          4          5
     1  C    0.000000
     2  C    1.522068   0.000000
     3  O    2.428254   1.405942   0.000000
     4  H    1.086412   2.164758   3.364039   0.000000
     5  H    1.085612   2.149191   2.720146   1.757865   0.000000
     6  H    1.085107   2.164567   2.683953   1.762791   1.756642
     7  H    2.163858   1.089731   2.061300   2.506886   2.500507
     8  H    2.147932   1.081016   1.993502   2.496073   3.043485
     9  H    2.758278   1.939986   0.946034   3.716853   2.677319
                    6          7          8          9
     6  H    0.000000
     7  H    3.068522   0.000000
     8  H    2.507457   1.747310   0.000000
     9  H    3.157818   2.231302   2.773248   0.000000
 Symmetry turned off by external request.
 Stoichiometry    C2H6O
 Framework group  C1[X(C2H6O)]
 Deg. of freedom    21
 Full point group                 C1      NOp   1
 Rotational constants (GHZ):     35.0013995      9.2670613      8.2314394
 Standard basis: 6-31G(d) (6D, 7F)
 Integral buffers will be    131072 words long.
 Raffenetti 1 integral format.
 Two-electron integral symmetry is turned off.
    57 basis functions,   108 primitive gaussians,    57 cartesian basis functions
    13 alpha electrons       13 beta electrons
       nuclear repulsion energy        82.1884728682 Hartrees.
 NAtoms=    9 NActive=    9 NUniq=    9 SFac= 7.50D-01 NAtFMM=   80 NAOKFM=F Big=F
 One-electron integrals computed using PRISM.
 NBasis=    57 RedAO= T  NBF=    57
 NBsUse=    57 1.00D-06 NBFU=    57
 Initial guess read from the read-write file.
 B after Tr=     0.000000    0.000000    0.000000
         Rot=    1.000000    0.000000    0.000000    0.000000 Ang=   0.00 deg.
 Harris functional with IExCor=  205 diagonalized for initial guess.
 ExpMin= 1.61D-01 ExpMax= 5.48D+03 ExpMxC= 8.25D+02 IAcc=1 IRadAn=         1 AccDes= 0.00D+00
 HarFok:  IExCor=  205 AccDes= 0.00D+00 IRadAn=         1 IDoV= 1
 ScaDFX=  1.000000  1.000000  1.000000  1.000000
 FoFCou: FMM=F IPFlag=           0 FMFlag=      100000 FMFlg1=           0
         NFxFlg=           0 DoJE=T BraDBF=F KetDBF=T FulRan=T
         Omega=  0.000000  0.000000  1.000000  0.000000  0.000000 ICntrl=     500 IOpCl=  0
         NMat0=    1 NMatS0=    1 NMatT0=    0 NMatD0=    1 NMtDS0=    0 NMtDT0=    0
         I1Cent=           4 NGrid=           0.
 Symmetry not used in FoFCou.
 Requested convergence on RMS density matrix=1.00D-08 within 128 cycles.
 Requested convergence on MAX density matrix=1.00D-06.
 Requested convergence on             energy=1.00D-06.
 No special actions if energy rises.
 Keep R1 ints in memory in canonical form, NReq=2215640.
 SCF Done:  E(RHF) =  -154.075134970     A.U. after   10 cycles
             Convg  =    0.5818D-08             -V/T =  2.0012
 Calling FoFJK, ICntrl=      2127 FMM=F ISym2X=0 I1Cent= 0 IOpClX= 0 NMat=1 NMatS=1 NMatT=0.
 -------------------------------------------------------------------
 Center     Atomic                   Forces (Hartrees/Bohr)
 Number     Number              X              Y              Z
 -------------------------------------------------------------------
      1        6           0.000565426    0.000109694    0.002990566
      2        6           0.000269734   -0.000511607   -0.003085351
      3        8           0.000554770    0.001764564    0.000920430
      4        1           0.000247255    0.000080754    0.000217544
      5        1          -0.001684820   -0.001325071    0.000268501
      6        1           0.001438041    0.001132923    0.000264459
      7        1          -0.000675678   -0.001008241   -0.001023542
      8        1          -0.000021627    0.001120983   -0.000658373
      9        1          -0.000693101   -0.001363998    0.000105766
 -------------------------------------------------------------------
 Cartesian Forces:  Max     0.003085351 RMS     0.001188899

 GradGradGradGradGradGradGradGradGradGradGradGradGradGradGradGradGradGrad
 Berny optimization.
 Using GEDIIS/GDIIS optimizer.
 Internal  Forces:  Max     0.003220131 RMS     0.001037148
 Search for a local minimum.
 Step number   2 out of a maximum of   43 on scan point     2 out of     9
 All quantities printed in internal units (Hartrees-Bohrs-Radians)
 Mixed Optimization -- En-DIIS/RFO-DIIS
 Update second derivatives using D2CorX and points    1    2
 DE= -9.77D-04 DEPred=-1.19D-03 R= 8.18D-01
 SS=  1.41D+00  RLast= 1.90D-01 DXNew= 5.0454D-01 5.6910D-01
 Trust test= 8.18D-01 RLast= 1.90D-01 DXMaxT set to 5.05D-01
 Use linear search instead of GDIIS.
     Eigenvalues ---    0.00475   0.04323   0.05565   0.05710   0.05972
     Eigenvalues ---    0.11558   0.12607   0.15509   0.16002   0.18168
     Eigenvalues ---    0.18623   0.22973   0.30830   0.34893   0.35247
     Eigenvalues ---    0.35316   0.35549   0.36183   0.48505   0.58571
     Eigenvalues --- 1000.000001000.000001000.000001000.000001000.00000
     Eigenvalues --- 1000.000001000.000001000.000001000.000001000.00000
     Eigenvalues --- 1000.000001000.000001000.00000
 RFO step:  Lambda=-1.13724864D-04 EMin= 4.75201013D-03
 Quartic linear search produced a step of -0.12930.
 Iteration  1 RMS(Cart)=  0.00909546 RMS(Int)=  0.00011515
 Iteration  2 RMS(Cart)=  0.00007692 RMS(Int)=  0.00008624
 Iteration  3 RMS(Cart)=  0.00000001 RMS(Int)=  0.00008624
 Iteration  1 RMS(Cart)=  0.00000227 RMS(Int)=  0.00000201
 Iteration  2 RMS(Cart)=  0.00000111 RMS(Int)=  0.00000225
 Iteration  3 RMS(Cart)=  0.00000055 RMS(Int)=  0.00000251
 Variable       Old X    -DE/DX   Delta X   Delta X   Delta X     New X
                                 (Linear)    (Quad)   (Total)
    R1        2.87629  -0.00064  -0.00030  -0.00127  -0.00157   2.87473
    R2        2.05302  -0.00014   0.00001  -0.00031  -0.00030   2.05272
    R3        2.05151   0.00112   0.00020   0.00246   0.00266   2.05417
    R4        2.05056  -0.00089  -0.00022  -0.00190  -0.00212   2.04844
    R5        2.65685  -0.00045   0.00005  -0.00114  -0.00109   2.65576
    R6        2.05929  -0.00143  -0.00050  -0.00291  -0.00340   2.05589
    R7        2.04282   0.00123   0.00054   0.00224   0.00278   2.04561
    R8        1.78775   0.00056   0.00010   0.00064   0.00074   1.78849
    A1        1.93861  -0.00038  -0.00045  -0.00185  -0.00235   1.93626
    A2        1.91776   0.00322   0.00257   0.01660   0.01919   1.93695
    A3        1.93973  -0.00280  -0.00230  -0.01425  -0.01656   1.92317
    A4        1.88599  -0.00098   0.00012  -0.00151  -0.00142   1.88457
    A5        1.89438   0.00109   0.00009   0.00089   0.00091   1.89529
    A6        1.88573  -0.00012  -0.00001   0.00033   0.00040   1.88613
    A7        1.95471   0.00029  -0.00097   0.00326   0.00246   1.95718
    A8        1.93385  -0.00144  -0.00969   0.00603  -0.00366   1.93019
    A9        1.92077   0.00083   0.00933  -0.00979  -0.00050   1.92027
   A10        1.93266   0.00019   0.00060  -0.00160  -0.00077   1.93189
   A11        1.84695   0.00013   0.00127   0.00220   0.00361   1.85056
   A12        1.87112   0.00010  -0.00010  -0.00068  -0.00098   1.87014
   A13        1.91270   0.00003   0.00041  -0.00098  -0.00057   1.91213
    D1       -3.08930  -0.00009  -0.00421  -0.00101  -0.00525  -3.09456
    D2        1.02641   0.00053   0.00238  -0.00581  -0.00332   1.02309
    D3       -1.03997   0.00079   0.00312  -0.00255   0.00046  -1.03951
    D4        1.10799  -0.00071  -0.00576  -0.00870  -0.01452   1.09347
    D5       -1.05948  -0.00009   0.00083  -0.01351  -0.01259  -1.07207
    D6       -3.12586   0.00016   0.00157  -0.01025  -0.00881  -3.13467
    D7       -0.97828  -0.00087  -0.00593  -0.01085  -0.01676  -0.99504
    D8        3.13743  -0.00025   0.00066  -0.01565  -0.01483   3.12261
    D9        1.07106   0.00000   0.00140  -0.01239  -0.01105   1.06001
   D10       -1.39626   0.00173   0.00000   0.00000   0.00000  -1.39626
   D11        0.77188   0.00020  -0.01265   0.00906  -0.00355   0.76833
   D12        2.79387   0.00048  -0.01174   0.00868  -0.00307   2.79080
         Item               Value     Threshold  Converged?
 Maximum Force            0.003220     0.000450     NO 
 RMS     Force            0.000962     0.000300     NO 
 Maximum Displacement     0.024010     0.001800     NO 
 RMS     Displacement     0.009110     0.001200     NO 
 Predicted change in Energy=-7.860339D-05
 GradGradGradGradGradGradGradGradGradGradGradGradGradGradGradGradGradGrad

                          Input orientation:                          
 ---------------------------------------------------------------------
 Center     Atomic      Atomic             Coordinates (Angstroms)
 Number     Number       Type             X           Y           Z
 ---------------------------------------------------------------------
      1          6           0       -1.193599   -0.237226   -0.012479
      2          6           0        0.091367    0.574979    0.045442
      3          8           0        1.233761   -0.229793   -0.103999
      4          1           0       -2.064394    0.408342    0.057514
      5          1           0       -1.239339   -0.952100    0.805124
      6          1           0       -1.246058   -0.788476   -0.944357
      7          1           0        0.141744    1.145995    0.970100
      8          1           0        0.117655    1.285797   -0.770541
      9          1           0        1.434442   -0.651067    0.719396
 ---------------------------------------------------------------------
                    Distance matrix (angstroms):
                    1          2          3          4          5
     1  C    0.000000
     2  C    1.521240   0.000000
     3  O    2.429096   1.405366   0.000000
     4  H    1.086252   2.162226   3.363203   0.000000
     5  H    1.087020   2.163300   2.732115   1.757966   0.000000
     6  H    1.083986   2.151143   2.677281   1.762326   1.757129
     7  H    2.159144   1.087929   2.058879   2.498799   2.517263
     8  H    2.147939   1.082489   1.996744   2.493379   3.054887
     9  H    2.759258   1.939395   0.946427   3.715144   2.692039
                    6          7          8          9
     6  H    0.000000
     7  H    3.055048   0.000000
     8  H    2.488480   1.746412   0.000000
     9  H    3.157854   2.227859   2.775839   0.000000
 Symmetry turned off by external request.
 Stoichiometry    C2H6O
 Framework group  C1[X(C2H6O)]
 Deg. of freedom    21
 Full point group                 C1      NOp   1
 Rotational constants (GHZ):     35.0768619      9.2610423      8.2306897
 Standard basis: 6-31G(d) (6D, 7F)
 Integral buffers will be    131072 words long.
 Raffenetti 1 integral format.
 Two-electron integral symmetry is turned off.
    57 basis functions,   108 primitive gaussians,    57 cartesian basis functions
    13 alpha electrons       13 beta electrons
       nuclear repulsion energy        82.1991569850 Hartrees.
 NAtoms=    9 NActive=    9 NUniq=    9 SFac= 7.50D-01 NAtFMM=   80 NAOKFM=F Big=F
 One-electron integrals computed using PRISM.
 NBasis=    57 RedAO= T  NBF=    57
 NBsUse=    57 1.00D-06 NBFU=    57
 Initial guess read from the read-write file.
 B after Tr=     0.000000    0.000000    0.000000
         Rot=    1.000000    0.000000    0.000000    0.000000 Ang=   0.00 deg.
 Harris functional with IExCor=  205 diagonalized for initial guess.
 ExpMin= 1.61D-01 ExpMax= 5.48D+03 ExpMxC= 8.25D+02 IAcc=1 IRadAn=         1 AccDes= 0.00D+00
 HarFok:  IExCor=  205 AccDes= 0.00D+00 IRadAn=         1 IDoV= 1
 ScaDFX=  1.000000  1.000000  1.000000  1.000000
 FoFCou: FMM=F IPFlag=           0 FMFlag=      100000 FMFlg1=           0
         NFxFlg=           0 DoJE=T BraDBF=F KetDBF=T FulRan=T
         Omega=  0.000000  0.000000  1.000000  0.000000  0.000000 ICntrl=     500 IOpCl=  0
         NMat0=    1 NMatS0=    1 NMatT0=    0 NMatD0=    1 NMtDS0=    0 NMtDT0=    0
         I1Cent=           4 NGrid=           0.
 Symmetry not used in FoFCou.
 Requested convergence on RMS density matrix=1.00D-08 within 128 cycles.
 Requested convergence on MAX density matrix=1.00D-06.
 Requested convergence on             energy=1.00D-06.
 No special actions if energy rises.
 Keep R1 ints in memory in canonical form, NReq=2215640.
 SCF Done:  E(RHF) =  -154.075215515     A.U. after   10 cycles
             Convg  =    0.2030D-08             -V/T =  2.0012
 Calling FoFJK, ICntrl=      2127 FMM=F ISym2X=0 I1Cent= 0 IOpClX= 0 NMat=1 NMatS=1 NMatT=0.
 -------------------------------------------------------------------
 Center     Atomic                   Forces (Hartrees/Bohr)
 Number     Number              X              Y              Z
 -------------------------------------------------------------------
      1        6           0.000208120   -0.000183357    0.001125079
      2        6           0.000027080   -0.000153538   -0.001296739
      3        8           0.000751112    0.001422043    0.000746822
      4        1           0.000055270    0.000082653    0.000052796
      5        1          -0.000105812    0.000062532   -0.000140926
      6        1           0.000015016   -0.000128038   -0.000119988
      7        1          -0.000079901    0.000006440    0.000024323
      8        1          -0.000066826    0.000022876   -0.000077928
      9        1          -0.000804059   -0.001131611   -0.000313439
 -------------------------------------------------------------------
 Cartesian Forces:  Max     0.001422043 RMS     0.000554935

 GradGradGradGradGradGradGradGradGradGradGradGradGradGradGradGradGradGrad
 Berny optimization.
 Using GEDIIS/GDIIS optimizer.
 Internal  Forces:  Max     0.001206356 RMS     0.000307057
 Search for a local minimum.
 Step number   3 out of a maximum of   43 on scan point     2 out of     9
 All quantities printed in internal units (Hartrees-Bohrs-Radians)
 Mixed Optimization -- En-DIIS/RFO-DIIS
 Swaping is turned off.
 Update second derivatives using D2CorX and points    1    2    3
 DE= -8.05D-05 DEPred=-7.86D-05 R= 1.02D+00
 SS=  1.41D+00  RLast= 4.30D-02 DXNew= 8.4853D-01 1.2909D-01
 Trust test= 1.02D+00 RLast= 4.30D-02 DXMaxT set to 5.05D-01
     Eigenvalues ---    0.00478   0.04290   0.05518   0.05802   0.05971
     Eigenvalues ---    0.11673   0.12423   0.15432   0.15987   0.17800
     Eigenvalues ---    0.18357   0.23065   0.30743   0.34867   0.35276
     Eigenvalues ---    0.35317   0.35663   0.36557   0.48404   0.58552
     Eigenvalues --- 1000.000001000.000001000.000001000.000001000.00000
     Eigenvalues --- 1000.000001000.000001000.000001000.000001000.00000
     Eigenvalues --- 1000.000001000.000001000.00000
 En-DIIS/RFO-DIIS IScMMF=        0 using points:     3    2
 RFO step:  Lambda=-6.24234124D-07.
 DIIS coeffs:      1.02275     -0.02275
 Iteration  1 RMS(Cart)=  0.00081179 RMS(Int)=  0.00000090
 Iteration  2 RMS(Cart)=  0.00000053 RMS(Int)=  0.00000069
 Iteration  1 RMS(Cart)=  0.00000019 RMS(Int)=  0.00000017
 Variable       Old X    -DE/DX   Delta X   Delta X   Delta X     New X
                                  (DIIS)     (GDIIS)  (Total)
    R1        2.87473  -0.00009  -0.00004  -0.00028  -0.00031   2.87441
    R2        2.05272   0.00001  -0.00001   0.00003   0.00002   2.05274
    R3        2.05417  -0.00014   0.00006  -0.00045  -0.00039   2.05378
    R4        2.04844   0.00017  -0.00005   0.00052   0.00047   2.04891
    R5        2.65576  -0.00026  -0.00002  -0.00061  -0.00063   2.65512
    R6        2.05589   0.00002  -0.00008   0.00013   0.00005   2.05594
    R7        2.04561   0.00007   0.00006   0.00015   0.00021   2.04582
    R8        1.78849   0.00006   0.00002   0.00010   0.00012   1.78860
    A1        1.93626  -0.00018  -0.00005  -0.00127  -0.00133   1.93493
    A2        1.93695   0.00019   0.00044   0.00096   0.00140   1.93835
    A3        1.92317   0.00001  -0.00038   0.00048   0.00010   1.92327
    A4        1.88457  -0.00002  -0.00003  -0.00033  -0.00036   1.88420
    A5        1.89529   0.00008   0.00002   0.00046   0.00048   1.89577
    A6        1.88613  -0.00008   0.00001  -0.00029  -0.00028   1.88584
    A7        1.95718  -0.00010   0.00006  -0.00036  -0.00030   1.95688
    A8        1.93019  -0.00053  -0.00008  -0.00019  -0.00027   1.92992
    A9        1.92027   0.00047  -0.00001  -0.00075  -0.00076   1.91951
   A10        1.93189   0.00013  -0.00002   0.00089   0.00088   1.93276
   A11        1.85056   0.00005   0.00008   0.00012   0.00020   1.85076
   A12        1.87014   0.00003  -0.00002   0.00030   0.00028   1.87043
   A13        1.91213   0.00001  -0.00001   0.00004   0.00003   1.91216
    D1       -3.09456  -0.00021  -0.00012   0.00115   0.00103  -3.09352
    D2        1.02309   0.00010  -0.00008   0.00039   0.00031   1.02340
    D3       -1.03951   0.00010   0.00001   0.00059   0.00060  -1.03891
    D4        1.09347  -0.00018  -0.00033   0.00178   0.00145   1.09492
    D5       -1.07207   0.00012  -0.00029   0.00101   0.00072  -1.07135
    D6       -3.13467   0.00012  -0.00020   0.00122   0.00101  -3.13365
    D7       -0.99504  -0.00021  -0.00038   0.00122   0.00084  -0.99420
    D8        3.12261   0.00009  -0.00034   0.00045   0.00012   3.12272
    D9        1.06001   0.00009  -0.00025   0.00066   0.00041   1.06042
   D10       -1.39626   0.00121   0.00000   0.00000   0.00000  -1.39626
   D11        0.76833   0.00053  -0.00008   0.00017   0.00008   0.76841
   D12        2.79080   0.00066  -0.00007   0.00104   0.00097   2.79177
         Item               Value     Threshold  Converged?
 Maximum Force            0.000255     0.000450     YES
 RMS     Force            0.000088     0.000300     YES
 Maximum Displacement     0.002192     0.001800     NO 
 RMS     Displacement     0.000812     0.001200     YES
 Predicted change in Energy=-6.340391D-07
 GradGradGradGradGradGradGradGradGradGradGradGradGradGradGradGradGradGrad

                          Input orientation:                          
 ---------------------------------------------------------------------
 Center     Atomic      Atomic             Coordinates (Angstroms)
 Number     Number       Type             X           Y           Z
 ---------------------------------------------------------------------
      1          6           0       -1.193117   -0.237449   -0.012255
      2          6           0        0.091500    0.574992    0.045738
      3          8           0        1.233562   -0.229545   -0.104343
      4          1           0       -2.063234    0.409100    0.057293
      5          1           0       -1.240481   -0.952066    0.805208
      6          1           0       -1.245351   -0.789105   -0.944194
      7          1           0        0.141337    1.146059    0.970424
      8          1           0        0.116872    1.285702   -0.770519
      9          1           0        1.434491   -0.651237    0.718847
 ---------------------------------------------------------------------
                    Distance matrix (angstroms):
                    1          2          3          4          5
     1  C    0.000000
     2  C    1.521073   0.000000
     3  O    2.428438   1.405030   0.000000
     4  H    1.086264   2.161142   3.361973   0.000000
     5  H    1.086815   2.163995   2.733168   1.757577   0.000000
     6  H    1.084234   2.151255   2.676466   1.762841   1.756983
     7  H    2.158824   1.087956   2.059215   2.497409   2.517707
     8  H    2.147330   1.082602   1.996687   2.491299   3.054985
     9  H    2.758633   1.939160   0.946488   3.714304   2.693220
                    6          7          8          9
     6  H    0.000000
     7  H    3.055083   0.000000
     8  H    2.488100   1.746706   0.000000
     9  H    3.156941   2.228410   2.775980   0.000000
 Symmetry turned off by external request.
 Stoichiometry    C2H6O
 Framework group  C1[X(C2H6O)]
 Deg. of freedom    21
 Full point group                 C1      NOp   1
 Rotational constants (GHZ):     35.0721649      9.2653262      8.2338940
 Standard basis: 6-31G(d) (6D, 7F)
 Integral buffers will be    131072 words long.
 Raffenetti 1 integral format.
 Two-electron integral symmetry is turned off.
    57 basis functions,   108 primitive gaussians,    57 cartesian basis functions
    13 alpha electrons       13 beta electrons
       nuclear repulsion energy        82.2083778847 Hartrees.
 NAtoms=    9 NActive=    9 NUniq=    9 SFac= 7.50D-01 NAtFMM=   80 NAOKFM=F Big=F
 One-electron integrals computed using PRISM.
 NBasis=    57 RedAO= T  NBF=    57
 NBsUse=    57 1.00D-06 NBFU=    57
 Initial guess read from the read-write file.
 B after Tr=     0.000000    0.000000    0.000000
         Rot=    1.000000    0.000000    0.000000    0.000000 Ang=   0.00 deg.
 Requested convergence on RMS density matrix=1.00D-08 within 128 cycles.
 Requested convergence on MAX density matrix=1.00D-06.
 Requested convergence on             energy=1.00D-06.
 No special actions if energy rises.
 Keep R1 ints in memory in canonical form, NReq=2215640.
 SCF Done:  E(RHF) =  -154.075216080     A.U. after    8 cycles
             Convg  =    0.3675D-08             -V/T =  2.0012
 Calling FoFJK, ICntrl=      2127 FMM=F ISym2X=0 I1Cent= 0 IOpClX= 0 NMat=1 NMatS=1 NMatT=0.
 -------------------------------------------------------------------
 Center     Atomic                   Forces (Hartrees/Bohr)
 Number     Number              X              Y              Z
 -------------------------------------------------------------------
      1        6          -0.000019658   -0.000093604    0.000889785
      2        6          -0.000164215   -0.000163185   -0.001396694
      3        8           0.001026231    0.001348029    0.000859158
      4        1          -0.000034145   -0.000001141   -0.000009415
      5        1           0.000006449    0.000002044    0.000002664
      6        1           0.000001243    0.000006587    0.000011773
      7        1           0.000011147   -0.000003671    0.000007401
      8        1          -0.000019222    0.000009203    0.000013021
      9        1          -0.000807830   -0.001104263   -0.000377695
 -------------------------------------------------------------------
 Cartesian Forces:  Max     0.001396694 RMS     0.000558790

 GradGradGradGradGradGradGradGradGradGradGradGradGradGradGradGradGradGrad
 Berny optimization.
 Using GEDIIS/GDIIS optimizer.
 Internal  Forces:  Max     0.001215565 RMS     0.000297806
 Search for a local minimum.
 Step number   4 out of a maximum of   43 on scan point     2 out of     9
 All quantities printed in internal units (Hartrees-Bohrs-Radians)
 Mixed Optimization -- En-DIIS/RFO-DIIS
 Swaping is turned off.
 Update second derivatives using D2CorX and points    1    2    3    4
 DE= -5.65D-07 DEPred=-6.34D-07 R= 8.91D-01
 Trust test= 8.91D-01 RLast= 3.70D-03 DXMaxT set to 5.05D-01
     Eigenvalues ---    0.00470   0.04346   0.05502   0.05808   0.06026
     Eigenvalues ---    0.11702   0.11843   0.15017   0.16143   0.17292
     Eigenvalues ---    0.19489   0.25056   0.32071   0.34843   0.35215
     Eigenvalues ---    0.35279   0.36253   0.36941   0.47582   0.58630
     Eigenvalues --- 1000.000001000.000001000.000001000.000001000.00000
     Eigenvalues --- 1000.000001000.000001000.000001000.000001000.00000
     Eigenvalues --- 1000.000001000.000001000.00000
 En-DIIS/RFO-DIIS IScMMF=        0 using points:     4    3    2
 RFO step:  Lambda=-1.36986071D-07.
 DIIS coeffs:      0.88970      0.11488     -0.00459
 Iteration  1 RMS(Cart)=  0.00030527 RMS(Int)=  0.00000024
 Iteration  2 RMS(Cart)=  0.00000005 RMS(Int)=  0.00000023
 Iteration  1 RMS(Cart)=  0.00000003 RMS(Int)=  0.00000002
 Variable       Old X    -DE/DX   Delta X   Delta X   Delta X     New X
                                  (DIIS)     (GDIIS)  (Total)
    R1        2.87441   0.00005   0.00003   0.00010   0.00013   2.87454
    R2        2.05274   0.00003   0.00000   0.00007   0.00007   2.05281
    R3        2.05378   0.00000   0.00005  -0.00008  -0.00002   2.05376
    R4        2.04891  -0.00001  -0.00006   0.00006   0.00000   2.04890
    R5        2.65512  -0.00001   0.00007  -0.00014  -0.00007   2.65505
    R6        2.05594   0.00000  -0.00002   0.00004   0.00001   2.05595
    R7        2.04582   0.00000  -0.00001   0.00002   0.00000   2.04583
    R8        1.78860  -0.00001  -0.00001   0.00000   0.00000   1.78860
    A1        1.93493   0.00004   0.00014  -0.00001   0.00013   1.93506
    A2        1.93835  -0.00002  -0.00007   0.00008   0.00001   1.93836
[...]
 Berny optimization.
 Using GEDIIS/GDIIS optimizer.
 Internal  Forces:  Max     0.000934783 RMS     0.000232917
 Search for a local minimum.
 Step number   3 out of a maximum of   43 on scan point     9 out of     9
 All quantities printed in internal units (Hartrees-Bohrs-Radians)
 Mixed Optimization -- En-DIIS/RFO-DIIS
 Swaping is turned off.
 Update second derivatives using D2CorX and points    1    2    3
 DE= -8.35D-06 DEPred=-9.03D-06 R= 9.24D-01
 SS=  1.41D+00  RLast= 1.05D-02 DXNew= 8.8571D-01 3.1494D-02
 Trust test= 9.24D-01 RLast= 1.05D-02 DXMaxT set to 5.27D-01
     Eigenvalues ---    0.00443   0.04750   0.05540   0.05926   0.06124
     Eigenvalues ---    0.12542   0.12814   0.16008   0.16411   0.18139
     Eigenvalues ---    0.19165   0.28760   0.34698   0.35136   0.35278
     Eigenvalues ---    0.35937   0.36629   0.37318   0.44088   0.58639
     Eigenvalues --- 1000.000001000.000001000.000001000.000001000.00000
     Eigenvalues --- 1000.000001000.000001000.000001000.000001000.00000
     Eigenvalues --- 1000.000001000.000001000.00000
 En-DIIS/RFO-DIIS IScMMF=        0 using points:     3    2
 RFO step:  Lambda=-1.97301509D-07.
 DIIS coeffs:      0.93133      0.06867
 Iteration  1 RMS(Cart)=  0.00034119 RMS(Int)=  0.00000023
 Iteration  2 RMS(Cart)=  0.00000009 RMS(Int)=  0.00000022
 Iteration  1 RMS(Cart)=  0.00000014 RMS(Int)=  0.00000014
 Variable       Old X    -DE/DX   Delta X   Delta X   Delta X     New X
                                  (DIIS)     (GDIIS)  (Total)
    R1        2.87426  -0.00010  -0.00002  -0.00030  -0.00033   2.87393
    R2        2.05047  -0.00003  -0.00004  -0.00005  -0.00008   2.05038
    R3        2.05391   0.00013   0.00016   0.00020   0.00036   2.05427
    R4        2.05293  -0.00009  -0.00012  -0.00012  -0.00024   2.05269
    R5        2.65795   0.00002  -0.00012   0.00030   0.00018   2.65813
    R6        2.05266   0.00004  -0.00001   0.00011   0.00010   2.05275
    R7        2.04913  -0.00002  -0.00003  -0.00003  -0.00006   2.04907
    R8        1.78684   0.00002  -0.00005   0.00009   0.00004   1.78688
    A1        1.93391  -0.00005  -0.00008  -0.00010  -0.00018   1.93373
    A2        1.93475  -0.00001  -0.00023   0.00019  -0.00005   1.93470
    A3        1.93434   0.00004   0.00011   0.00005   0.00016   1.93451
    A4        1.88108   0.00003   0.00023  -0.00007   0.00016   1.88124
    A5        1.88632  -0.00001  -0.00010  -0.00006  -0.00016   1.88616
    A6        1.89163  -0.00001   0.00008  -0.00001   0.00007   1.89170
    A7        1.97128  -0.00010  -0.00030  -0.00011  -0.00041   1.97088
    A8        1.91469   0.00042  -0.00014   0.00052   0.00037   1.91506
    A9        1.92090  -0.00033   0.00019   0.00006   0.00026   1.92116
   A10        1.90004   0.00003   0.00017   0.00002   0.00019   1.90023
   A11        1.87968  -0.00001   0.00005  -0.00057  -0.00052   1.87916
   A12        1.87445  -0.00002   0.00004   0.00007   0.00012   1.87457
   A13        1.92430  -0.00004   0.00003  -0.00021  -0.00018   1.92411
    D1       -3.13142   0.00020   0.00008  -0.00006   0.00003  -3.13139
    D2        1.02877  -0.00008   0.00017  -0.00037  -0.00020   1.02856
    D3       -1.03005  -0.00011   0.00009  -0.00081  -0.00072  -1.03078
    D4        1.06399   0.00020   0.00000  -0.00002  -0.00002   1.06397
    D5       -1.05901  -0.00008   0.00009  -0.00034  -0.00025  -1.05926
    D6       -3.11783  -0.00012   0.00000  -0.00078  -0.00077  -3.11860
    D7       -1.03733   0.00019  -0.00003  -0.00016  -0.00019  -1.03752
    D8        3.12285  -0.00009   0.00006  -0.00048  -0.00042   3.12244
    D9        1.06403  -0.00013  -0.00002  -0.00092  -0.00094   1.06309
   D10       -0.17453  -0.00093   0.00000   0.00000   0.00000  -0.17453
   D11        1.95671  -0.00044  -0.00026   0.00060   0.00033   1.95704
   D12       -2.29929  -0.00045  -0.00009   0.00039   0.00030  -2.29900
         Item               Value     Threshold  Converged?
 Maximum Force            0.000133     0.000450     YES
 RMS     Force            0.000047     0.000300     YES
 Maximum Displacement     0.001024     0.001800     YES
 RMS     Displacement     0.000341     0.001200     YES
 Predicted change in Energy=-1.608944D-07
 Optimization completed.
    -- Stationary point found.
                           ----------------------------
                           !   Optimized Parameters   !
                           ! (Angstroms and Degrees)  !
 --------------------------                            --------------------------
 ! Name  Definition              Value          Derivative Info.                !
 --------------------------------------------------------------------------------
 ! R1    R(1,2)                  1.521          -DE/DX =   -0.0001              !
 ! R2    R(1,4)                  1.0851         -DE/DX =    0.0                 !
 ! R3    R(1,5)                  1.0869         -DE/DX =    0.0001              !
 ! R4    R(1,6)                  1.0864         -DE/DX =   -0.0001              !
 ! R5    R(2,3)                  1.4065         -DE/DX =    0.0                 !
 ! R6    R(2,7)                  1.0862         -DE/DX =    0.0                 !
 ! R7    R(2,8)                  1.0844         -DE/DX =    0.0                 !
 ! R8    R(3,9)                  0.9456         -DE/DX =    0.0                 !
 ! A1    A(2,1,4)              110.8047         -DE/DX =    0.0                 !
 ! A2    A(2,1,5)              110.853          -DE/DX =    0.0                 !
 ! A3    A(2,1,6)              110.8298         -DE/DX =    0.0                 !
 ! A4    A(4,1,5)              107.778          -DE/DX =    0.0                 !
 ! A5    A(4,1,6)              108.0783         -DE/DX =    0.0                 !
 ! A6    A(5,1,6)              108.3824         -DE/DX =    0.0                 !
 ! A7    A(1,2,3)              112.9462         -DE/DX =   -0.0001              !
 ! A8    A(1,2,7)              109.7034         -DE/DX =    0.0004              !
 ! A9    A(1,2,8)              110.0595         -DE/DX =   -0.0003              !
 ! A10   A(3,2,7)              108.8644         -DE/DX =    0.0                 !
 ! A11   A(3,2,8)              107.6975         -DE/DX =    0.0                 !
 ! A12   A(7,2,8)              107.3981         -DE/DX =    0.0                 !
 ! A13   A(2,3,9)              110.254          -DE/DX =    0.0                 !
 ! D1    D(4,1,2,3)           -179.417          -DE/DX =    0.0002              !
 ! D2    D(4,1,2,7)             58.944          -DE/DX =   -0.0001              !
 ! D3    D(4,1,2,8)            -59.0178         -DE/DX =   -0.0001              !
 ! D4    D(5,1,2,3)             60.9623         -DE/DX =    0.0002              !
 ! D5    D(5,1,2,7)            -60.6767         -DE/DX =   -0.0001              !
 ! D6    D(5,1,2,8)           -178.6385         -DE/DX =   -0.0001              !
 ! D7    D(6,1,2,3)            -59.4346         -DE/DX =    0.0002              !
 ! D8    D(6,1,2,7)            178.9264         -DE/DX =   -0.0001              !
 ! D9    D(6,1,2,8)             60.9646         -DE/DX =   -0.0001              !
 ! D10   D(1,2,3,9)             -9.9999         -DE/DX =   -0.0009              !
 ! D11   D(7,2,3,9)            112.1111         -DE/DX =   -0.0004              !
 ! D12   D(8,2,3,9)           -131.7399         -DE/DX =   -0.0004              !
 --------------------------------------------------------------------------------
 GradGradGradGradGradGradGradGradGradGradGradGradGradGradGradGradGradGrad

 Summary of Optimized Potential Surface Scan
                           1         2         3         4         5
     Eigenvalues --  -154.07473-154.07522-154.07552-154.07555-154.07528
           R1           1.52076   1.52107   1.52130   1.52136   1.52146
           R2           1.08649   1.08626   1.08615   1.08594   1.08567
           R3           1.08639   1.08682   1.08719   1.08748   1.08771
           R4           1.08416   1.08423   1.08430   1.08445   1.08472
           R5           1.40592   1.40503   1.40419   1.40363   1.40365
           R6           1.08756   1.08796   1.08833   1.08869   1.08863
           R7           1.08317   1.08260   1.08221   1.08207   1.08209
           R8           0.94572   0.94649   0.94696   0.94717   0.94715
           A1         110.83117 110.86352 110.87379 110.88521 110.83870
           A2         111.02348 111.05923 111.05085 110.98792 110.97277
           A3         110.16784 110.19517 110.29681 110.42426 110.58019
           A4         108.11499 107.95686 107.82147 107.71427 107.62691
           A5         108.58048 108.61942 108.62477 108.61342 108.55716
           A6         108.03037 108.05093 108.07328 108.11212 108.15647
           A7         111.81110 112.12085 112.38930 112.56134 112.64682
           A8         110.60247 110.57622 110.39353 110.18329 109.96417
           A9         109.88619 109.97991 110.09636 110.26493 110.39296
           A10        110.80066 110.73926 110.70904 110.57975 110.41961
           A11        106.44890 106.04084 105.80745 105.74834 105.89139
           A12        107.09695 107.16750 107.22236 107.28762 107.32523
           A13        109.78476 109.55870 109.41237 109.35300 109.45310
           D1        -177.15093-177.24589-177.38656-177.68258-177.92362
           D2          58.85706  58.63647  58.47615  58.38121  58.45024
           D3         -59.17547 -59.52489 -59.71273 -59.86257 -59.78325
           D4          62.67498  62.73403  62.76259  62.63535  62.54457
           D5         -61.31704 -61.38362 -61.37470 -61.30087 -61.08157
           D6        -179.34956-179.54497-179.56358-179.54465-179.31506
           D7         -56.95626 -56.96366 -57.02414 -57.24281 -57.48192
           D8         179.05173 178.91869 178.83857 178.82098 178.89193
           D9          61.01920  60.75733  60.64969  60.57720  60.65845
           D10        -89.99979 -79.99996 -69.99981 -60.00010 -49.99981
           D11         33.88093  44.02680  53.96245  63.71630  73.37327
           D12        149.98889 159.95681 169.81162 179.54536-170.75376
                           6         7         8         9
     Eigenvalues --  -154.07476-154.07412-154.07349-154.07304
           R1           1.52124   1.52106   1.52090   1.52099
           R2           1.08547   1.08526   1.08514   1.08506
           R3           1.08770   1.08766   1.08732   1.08688
           R4           1.08506   1.08539   1.08587   1.08636
           R5           1.40454   1.40502   1.40616   1.40653
           R6           1.08842   1.08791   1.08719   1.08622
           R7           1.08234   1.08282   1.08348   1.08435
           R8           0.94688   0.94637   0.94595   0.94556
           A1         110.82152 110.81059 110.80996 110.80470
           A2         110.94785 110.88403 110.87689 110.85295
           A3         110.68380 110.76842 110.81346 110.82980
           A4         107.58450 107.61351 107.65866 107.77799
           A5         108.46755 108.35991 108.22821 108.07830
           A6         108.22335 108.29095 108.33828 108.38242
           A7         112.73090 112.81494 112.88610 112.94623
           A8         109.78418 109.65311 109.64987 109.70343
           A9         110.45150 110.38163 110.25954 110.05948
           A10        110.16964 109.84470 109.39612 108.86443
           A11        106.13256 106.57657 107.07086 107.69747
           A12        107.38530 107.39302 107.40520 107.39811
           A13        109.60840 109.84253 110.06483 110.25399
           D1        -178.05971-178.48384-178.92701-179.41703
           D2          58.71141  58.74401  58.83129  58.94397
           D3         -59.52063 -59.37466 -59.22677 -59.01778
           D4          62.48923  62.07750  61.58282  60.96227
           D5         -60.73965 -60.69465 -60.65888 -60.67673
           D6        -178.97169-178.81332-178.71694-178.63848
           D7         -57.67339 -58.18408 -58.76350 -59.43461
           D8         179.09772 179.04377 178.99479 178.92639
           D9          60.86568  60.92510  60.93673  60.96464
           D10        -39.99987 -29.99979 -19.99978  -9.99994
           D11         83.01424  92.66530 102.38418 112.11112
           D12       -161.03397-151.29420-141.52091-131.73988
                          Input orientation:                          
 ---------------------------------------------------------------------
 Center     Atomic      Atomic             Coordinates (Angstroms)
 Number     Number       Type             X           Y           Z
 ---------------------------------------------------------------------
      1          6           0       -1.125846   -0.242156    0.033479
      2          6           0        0.100362    0.656225    0.085829
      3          8           0        1.306810   -0.065038    0.136696
      4          1           0       -2.034664    0.348642   -0.015150
      5          1           0       -1.184440   -0.868848    0.919561
      6          1           0       -1.095536   -0.886622   -0.840554
      7          1           0        0.042154    1.305048    0.955031
      8          1           0        0.133255    1.292162   -0.791853
      9          1           0        1.133484   -0.982962    0.283161
 ---------------------------------------------------------------------
                    Distance matrix (angstroms):
                    1          2          3          4          5
     1  C    0.000000
     2  C    1.520992   0.000000
     3  O    2.441279   1.406529   0.000000
     4  H    1.085060   2.159430   3.370406   0.000000
     5  H    1.086884   2.161405   2.732273   1.754664   0.000000
     6  H    1.086364   2.160725   2.720530   1.757591   1.762448
     7  H    2.146468   1.086219   2.036213   2.483775   2.496321
     8  H    2.149568   1.084354   2.020254   2.488648   3.055359
     9  H    2.390755   1.947618   0.945557   3.449539   2.406409
                    6          7          8          9
     6  H    0.000000
     7  H    3.053175   0.000000
     8  H    2.501879   1.749305   0.000000
     9  H    2.498109   2.622480   2.707822   0.000000
 Symmetry turned off by external request.
 Stoichiometry    C2H6O
 Framework group  C1[X(C2H6O)]
 Deg. of freedom    21
 Full point group                 C1      NOp   1
 Rotational constants (GHZ):     34.6852689      9.4495727      8.1777728

 **********************************************************************

            Population analysis using the SCF density.

 **********************************************************************

 Alpha  occ. eigenvalues --  -20.55011 -11.27017 -11.22322  -1.35775  -1.01590
 Alpha  occ. eigenvalues --   -0.85702  -0.66237  -0.64464  -0.62170  -0.53686
 Alpha  occ. eigenvalues --   -0.53189  -0.48078  -0.43287
 Alpha virt. eigenvalues --    0.22773   0.26740   0.29529   0.30457   0.31852
 Alpha virt. eigenvalues --    0.34460   0.39338   0.43689   0.72399   0.74253
 Alpha virt. eigenvalues --    0.80591   0.81651   0.90404   0.91411   1.11036
 Alpha virt. eigenvalues --    1.13233   1.14840   1.18001   1.18674   1.20692
 Alpha virt. eigenvalues --    1.23319   1.29161   1.29753   1.45289   1.58670
 Alpha virt. eigenvalues --    1.70669   1.72340   1.89814   2.04203   2.10572
 Alpha virt. eigenvalues --    2.22536   2.24389   2.43888   2.50675   2.54631
 Alpha virt. eigenvalues --    2.67458   2.74837   2.76069   2.80986   3.02403
 Alpha virt. eigenvalues --    3.20063   4.18813   4.59784   4.82548
          Condensed to atoms (all electrons):
              1          2          3          4          5          6
     1  C    5.167408   0.355089  -0.040448   0.381395   0.386689   0.386483
     2  C    0.355089   4.703041   0.227530  -0.031267  -0.037219  -0.036933
     3  O   -0.040448   0.227530   8.381425   0.003005  -0.000563   0.000629
     4  H    0.381395  -0.031267   0.003005   0.523505  -0.024747  -0.023611
     5  H    0.386689  -0.037219  -0.000563  -0.024747   0.545188  -0.032823
     6  H    0.386483  -0.036933   0.000629  -0.023611  -0.032823   0.536782
     7  H   -0.046321   0.403633  -0.044845  -0.000297  -0.006073   0.005021
     8  H   -0.041965   0.406009  -0.043938  -0.001079   0.004821  -0.005891
     9  H   -0.006527  -0.033459   0.267709   0.000267   0.002593   0.000959
              7          8          9
     1  C   -0.046321  -0.041965  -0.006527
     2  C    0.403633   0.406009  -0.033459
     3  O   -0.044845  -0.043938   0.267709
     4  H   -0.000297  -0.001079   0.000267
     5  H   -0.006073   0.004821   0.002593
     6  H    0.005021  -0.005891   0.000959
     7  H    0.587304  -0.048965   0.002575
     8  H   -0.048965   0.570612   0.004334
     9  H    0.002575   0.004334   0.321197
 Mulliken atomic charges:
              1
     1  C   -0.541802
     2  C    0.043577
     3  O   -0.750504
     4  H    0.172827
     5  H    0.162134
     6  H    0.169384
     7  H    0.147969
     8  H    0.156063
     9  H    0.440352
 Sum of Mulliken atomic charges =   0.00000
 Mulliken charges with hydrogens summed into heavy atoms:
              1
     1  C   -0.037457
     2  C    0.347608
     3  O   -0.310151
 Sum of Mulliken charges with hydrogens summed into heavy atoms =   0.00000
 Electronic spatial extent (au):  <R**2>=            194.2217
 Charge=              0.0000 electrons
 Dipole moment (field-independent basis, Debye):
    X=             -1.8366    Y=             -0.8075    Z=              0.1600  Tot=              2.0126
 Quadrupole moment (field-independent basis, Debye-Ang):
   XX=            -23.4412   YY=            -17.5041   ZZ=            -19.9093
   XY=             -1.7548   XZ=              0.0436   YZ=             -0.5548
 Traceless Quadrupole moment (field-independent basis, Debye-Ang):
   XX=             -3.1563   YY=              2.7808   ZZ=              0.3755
   XY=             -1.7548   XZ=              0.0436   YZ=             -0.5548
 Octapole moment (field-independent basis, Debye-Ang**2):
  XXX=             -4.2002  YYY=             -7.7855  ZZZ=             -5.1017  XYY=              3.2136
  XXY=             -3.3429  XXZ=             -1.8462  XZZ=              0.3463  YZZ=             -2.2463
  YYZ=             -1.1478  XYZ=             -0.6665
 Hexadecapole moment (field-independent basis, Debye-Ang**3):
 XXXX=           -159.3281 YYYY=            -56.8577 ZZZZ=            -32.9606 XXXY=            -10.8563
 XXXZ=             -2.7798 YYYX=             -8.5921 YYYZ=             -1.2765 ZZZX=             -2.7512
 ZZZY=             -0.6920 XXYY=            -31.9223 XXZZ=            -31.9576 YYZZ=            -13.8549
 XXYZ=             -1.1308 YYXZ=             -0.1871 ZZXY=             -1.5650
 N-N= 8.232981159031D+01 E-N=-5.263214377401D+02  KE= 1.538862772032D+02
 1\1\GINC-BLOGIN2\Scan\RHF\6-31G(d)\C2H6O1\RUPAKHETIC\23-Jun-2017\0\\#H
 F/6-31G* nosymm opt=ModRedundant\\Mol dihedral scan\\0,1\C,-1.12584614
 ,-0.2421562889,0.0334788773\C,0.100362273,0.6562248027,0.0858291378\O,
 1.3068101106,-0.0650382726,0.1366963357\H,-2.0346636177,0.348641511,-0
 .0151499585\H,-1.1844403528,-0.8688479513,0.9195606893\H,-1.0955359559
 ,-0.8866217031,-0.8405537782\H,0.0421542882,1.3050480516,0.9550310576\
 H,0.1332549975,1.2921618533,-0.7918530272\H,1.1334843972,-0.9829620026
 ,0.2831606662\\Version=EM64L-G09RevA.02\HF=-154.0747277,-154.0752161,-
 154.0755217,-154.075551,-154.0752812,-154.0747646,-154.0741178,-154.07
 34935,-154.0730439\RMSD=2.609e-09,3.675e-09,2.196e-09,2.596e-09,7.054e
 -09,6.797e-09,1.583e-09,8.351e-09,2.416e-09\PG=C01 [X(C2H6O1)]\\@


 QUHEN THE CAUSS IS TAKEN AWAY THE EFFECT WANISHETH.
 -- PROVERBS AND REASONS OF THE YEAR 1585
           AS REPRINTED IN PAISLEY MAGAZINE 1828.
 Job cpu time:  0 days  0 hours  1 minutes 10.0 seconds.
 File lengths (MBytes):  RWF=     72 Int=      0 D2E=      0 Chk=      2 Scr=      2
 Normal termination of Gaussian 09 at Fri Jun 23 12:10:18 2017.
