 Entering Gaussian System, Link 0=/homes/huanglei/prog/g09/g09
 Initial command:
 /homes/huanglei/prog/g09/l1.exe /lcrc/project/Drude/chetan/tmp/0/Gau-36581.inp -scrdir=/lcrc/project/Drude/chetan/tmp/0/
 Entering Link 1 = /homes/huanglei/prog/g09/l1.exe PID=     36583.
  
 Copyright (c) 1988,1990,1992,1993,1995,1998,2003,2009, Gaussian, Inc.
                  All Rights Reserved.
  
 This is part of the Gaussian(R) 09 program.  It is based on
 the Gaussian(R) 03 system (copyright 2003, Gaussian, Inc.),
 the Gaussian(R) 98 system (copyright 1998, Gaussian, Inc.),
 the Gaussian(R) 94 system (copyright 1995, Gaussian, Inc.),
 the Gaussian 92(TM) system (copyright 1992, Gaussian, Inc.),
 the Gaussian 90(TM) system (copyright 1990, Gaussian, Inc.),
 the Gaussian 88(TM) system (copyright 1988, Gaussian, Inc.),
 the Gaussian 86(TM) system (copyright 1986, Carnegie Mellon
 University), and the Gaussian 82(TM) system (copyright 1983,
 Carnegie Mellon University). Gaussian is a federally registered
 trademark of Gaussian, Inc.
  
 This software contains proprietary and confidential information,
 including trade secrets, belonging to Gaussian, Inc.
  
 This software is provided under written license and may be
 used, copied, transmitted, or stored only in accord with that
 written license.
  
 The following legend is applicable only to US Government
 contracts under FAR:
  
                    RESTRICTED RIGHTS LEGEND
  
 Use, reproduction and disclosure by the US Government is
 subject to restrictions as set forth in subparagraphs (a)
 and (c) of the Commercial Computer Software - Restricted
 Rights clause in FAR 52.227-19.
  
 Gaussian, Inc.
 340 Quinnipiac St., Bldg. 40, Wallingford CT 06492
  
  
 ---------------------------------------------------------------
 Warning -- This program may not be used in any manner that
 competes with the business of Gaussian, Inc. or will provide
 assistance to any competitor of Gaussian, Inc.  The licensee
 of this program is prohibited from giving any competitor of
 Gaussian, Inc. access to this program.  By using this program,
 the user acknowledges that Gaussian, Inc. is engaged in the
 business of creating and licensing software in the field of
 computational chemistry and represents and warrants to the
 licensee that it is not a competitor of Gaussian, Inc. and that
 it will not use this program in any manner prohibited above.
 ---------------------------------------------------------------
  

 Cite this work as:
 Gaussian 09, Revision A.02,
 M. J. Frisch, G. W. Trucks, H. B. Schlegel, G. E. Scuseria, 
 M. A. Robb, J. R. Cheeseman, G. Scalmani, V. Barone, B. Mennucci, 
 G. A. Petersson, H. Nakatsuji, M. Caricato, X. Li, H. P. Hratchian, 
 A. F. Izmaylov, J. Bloino, G. Zheng, J. L. Sonnenberg, M. Hada, 
 M. Ehara, K. Toyota, R. Fukuda, J. Hasegawa, M. Ishida, T. Nakajima, 
 Y. Honda, O. Kitao, H. Nakai, T. Vreven, J. A. Montgomery, Jr., 
 J. E. Peralta, F. Ogliaro, M. Bearpark, J. J. Heyd, E. Brothers, 
 K. N. Kudin, V. N. Staroverov, R. Kobayashi, J. Normand, 
 K. Raghavachari, A. Rendell, J. C. Burant, S. S. Iyengar, J. Tomasi, 
 M. Cossi, N. Rega, J. M. Millam, M. Klene, J. E. Knox, J. B. Cross, 
 V. Bakken, C. Adamo, J. Jaramillo, R. Gomperts, R. E. Stratmann, 
 O. Yazyev, A. J. Austin, R. Cammi, C. Pomelli, J. W. Ochterski, 
 R. L. Martin, K. Morokuma, V. G. Zakrzewski, G. A. Voth, 
 P. Salvador, J. J. Dannenberg, S. Dapprich, A. D. Daniels, 
 O. Farkas, J. B. Foresman, J. V. Ortiz, J. Cioslowski, 
 and D. J. Fox, Gaussian, Inc., Wallingford CT, 2009.
 
 ******************************************
 Gaussian 09:  EM64L-G09RevA.02 11-Jun-2009
                23-Jun-2017 
 ******************************************
 %mem=1GB
 %nproc=12
 Will use up to   12 processors via shared memory.
 -------------------------------------------------------
 #HF/6-31G* nosymm SCF=Tight opt=(Z-MATRIX,MaxCycle=200)
 -------------------------------------------------------
 1/6=200,10=7,18=40,38=1/1,3;
 2/12=2,15=1,17=6,18=5,29=3,40=1/2;
 3/5=1,6=6,7=1,11=9,16=1,25=1,30=1,71=1/1,2,3;
 4//1;
 5/5=2,32=2,38=5/2;
 6/7=2,8=2,9=2,10=2,28=1/1;
 7/29=1,30=1/1,2,3,16;
 1/6=200,10=7,18=40/3(2);
 2/15=1,29=3/2;
 99//99;
 2/15=1,29=3/2;
 3/5=1,6=6,7=1,11=9,16=1,25=1,30=1,71=1/1,2,3;
 4/5=5,16=3/1;
 5/5=2,32=2,38=5/2;
 7/30=1/1,2,3,16;
 1/6=200,18=40/3(-5);
 2/15=1,29=3/2;
 6/7=2,8=2,9=2,10=2,19=2,28=1/1;
 99/9=1/99;
 ---------------
 Mol-Water Dimer
 ---------------
 Symbolic Z-matrix:
 Charge =  0 Multiplicity = 1
 C                    -1.20905  -0.23651  -0.01918 
 C                     0.08991   0.55293   0.04491 
 O99                   1.222    -0.26249  -0.11001 
 H                    -2.06738   0.42387   0.06207 
 H                    -1.26769  -0.95774   0.79247 
 H                    -1.27637  -0.77802  -0.95628 
 H                     0.14555   1.11298   0.97665 
 H                     0.13148   1.27043  -0.76403 
 H                     1.27318  -0.87009   0.61476 
 X1                    0.2457   -0.34115   1.02606 
 X2                    2.04135   0.72825   0.66271 
 H1W                  O99  roh      X2    90.      X1    180.     0
 X3                   H1W   1.5      O99   90.      X2    0.       0
 O1W                  H1W   0.9474   X3    90.      X2    180.     0
 H2W                  O1W   0.9474   H1W   105.5395  X3   phi      0
       Variables:
  roh                   1.9532                   
  phi                 219.71544                  
 

 GradGradGradGradGradGradGradGradGradGradGradGradGradGradGradGradGradGrad
 Berny optimization.
 Initialization pass.
                       ----------------------------
                       !    Initial Parameters    !
                       ! (Angstroms and Degrees)  !
 ----------------------                            ----------------------
 !      Name          Value   Derivative information (Atomic Units)     !
 ------------------------------------------------------------------------
 !       roh         1.9532   estimate D2E/DX2                          !
 !       phi       219.7154   estimate D2E/DX2                          !
 ------------------------------------------------------------------------
 Trust Radius=3.00D-01 FncErr=1.00D-07 GrdErr=1.00D-07
 Number of steps in this run= 100 maximum allowed number of steps= 100.
 GradGradGradGradGradGradGradGradGradGradGradGradGradGradGradGradGradGrad

 ---------------------------------------------------------------------------------------------------
                            Z-MATRIX (ANGSTROMS AND DEGREES)
   CD    Cent   Atom    N1       Length/X        N2       Alpha/Y        N3        Beta/Z          J
 ---------------------------------------------------------------------------------------------------
      1      1  C        0  -1.209050         -0.236510         -0.019180
      2      2  C        0   0.089910          0.552930          0.044910
      3      3  O        0   1.222000         -0.262490         -0.110010
      4      4  H        0  -2.067380          0.423870          0.062070
      5      5  H        0  -1.267690         -0.957740          0.792470
      6      6  H        0  -1.276370         -0.778020         -0.956280
      7      7  H        0   0.145550          1.112980          0.976650
      8      8  H        0   0.131480          1.270430         -0.764030
      9      9  H        0   1.273180         -0.870090          0.614760
     10         X        0   0.245700         -0.341150          1.026060
     11         X        0   2.041350          0.728250          0.662710
     12     10  H        3   1.953200(    11)     11   90.000(    24)     10  180.000(    36)      0
     13         X       12   1.500000(    12)      3   90.000(    25)     11    0.000(    37)      0
     14     11  O       12   0.947400(    13)     13   90.000(    26)     11  180.000(    38)      0
     15     12  H       14   0.947400(    14)     12  105.540(    27)     13  219.715(    39)      0
 ---------------------------------------------------------------------------------------------------
                         Z-Matrix orientation:                         
 ---------------------------------------------------------------------
 Center     Atomic      Atomic             Coordinates (Angstroms)
 Number     Number       Type             X           Y           Z
 ---------------------------------------------------------------------
      1          6           0       -1.209050   -0.236510   -0.019180
      2          6           0        0.089910    0.552930    0.044910
      3          8           0        1.222000   -0.262490   -0.110010
      4          1           0       -2.067380    0.423870    0.062070
      5          1           0       -1.267690   -0.957740    0.792470
      6          1           0       -1.276370   -0.778020   -0.956280
      7          1           0        0.145550    1.112980    0.976650
      8          1           0        0.131480    1.270430   -0.764030
      9          1           0        1.273180   -0.870090    0.614760
     10         -1           0        0.245700   -0.341150    1.026060
     11         -1           0        2.041350    0.728250    0.662710
     12          1           0        2.493272   -0.160064   -1.589323
     13         -1           0        3.312623    0.830677   -0.816602
     14          8           0        3.109903   -0.110382   -2.306864
     15          1           0        2.584058   -0.123979   -3.094816
 ---------------------------------------------------------------------
                    Distance matrix (angstroms):
                    1          2          3          4          5
     1  C    0.000000
     2  C    1.521388   0.000000
     3  O    2.432885   1.403758   0.000000
     4  H    1.086017   2.161215   3.364628   0.000000
     5  H    1.087376   2.164266   2.737955   1.755515   0.000000
     6  H    1.084399   2.154189   2.687712   1.762746   1.757982
     7  H    2.155862   1.088527   2.057059   2.491664   2.513772
     8  H    2.150044   1.082090   1.991688   2.496816   3.056977
     9  H    2.639085   1.936451   0.947148   3.624795   2.548585
    10  X    1.794373   1.336527   1.500001   2.620090   1.650787
    11  X    3.458444   2.054393   1.499999   4.163541   3.716066
    12  H    4.022236   2.992528   1.953200   4.885450   4.522617
    13  X    4.713841   3.347421   2.462720   5.466442   5.173665
    14  O    4.889045   3.884737   2.900600   5.718525   5.430212
    15  H    4.884657   4.066554   3.283817   5.648181   5.535532
                    6          7          8          9         10
     6  H    0.000000
     7  H    3.055152   0.000000
     8  H    2.493020   1.747843   0.000000
     9  H    2.996139   2.309779   2.790406   0.000000
    10  X    2.537169   1.458412   2.411360   1.226646   0.000000
    11  X    3.987135   1.959753   2.444821   1.774000   2.121320
    12  H    3.872056   3.703600   2.881923   2.617392   3.453201
    13  X    4.864799   3.650452   3.211824   3.016742   3.764917
    14  O    4.637802   4.589713   3.627393   3.533637   4.400601
    15  H    4.461391   4.904409   3.659519   4.004502   4.743069
                   11         12         13         14         15
    11  X    0.000000
    12  H    2.462719   0.000000
    13  X    1.953200   1.500000   0.000000
    14  O    3.265498   0.947400   1.774138   0.000000
    15  H    3.890993   1.508660   2.575351   0.947400   0.000000
 Symmetry turned off by external request.
 Stoichiometry    C2H8O2
 Framework group  C1[X(C2H8O2)]
 Deg. of freedom    30
 Full point group                 C1      NOp   1
 Rotational constants (GHZ):     17.1051824      2.1848026      2.1110554
 Standard basis: 6-31G(d) (6D, 7F)
 Integral buffers will be    131072 words long.
 Raffenetti 1 integral format.
 Two-electron integral symmetry is turned off.
    76 basis functions,   144 primitive gaussians,    76 cartesian basis functions
    18 alpha electrons       18 beta electrons
       nuclear repulsion energy       129.0008687715 Hartrees.
 NAtoms=   12 NActive=   12 NUniq=   12 SFac= 7.50D-01 NAtFMM=   80 NAOKFM=F Big=F
 One-electron integrals computed using PRISM.
 NBasis=    76 RedAO= T  NBF=    76
 NBsUse=    76 1.00D-06 NBFU=    76
 Harris functional with IExCor=  205 diagonalized for initial guess.
 ExpMin= 1.61D-01 ExpMax= 5.48D+03 ExpMxC= 8.25D+02 IAcc=1 IRadAn=         1 AccDes= 0.00D+00
 HarFok:  IExCor=  205 AccDes= 0.00D+00 IRadAn=         1 IDoV= 1
 ScaDFX=  1.000000  1.000000  1.000000  1.000000
 FoFCou: FMM=F IPFlag=           0 FMFlag=      100000 FMFlg1=           0
         NFxFlg=           0 DoJE=T BraDBF=F KetDBF=T FulRan=T
         Omega=  0.000000  0.000000  1.000000  0.000000  0.000000 ICntrl=     500 IOpCl=  0
         NMat0=    1 NMatS0=    1 NMatT0=    0 NMatD0=    1 NMtDS0=    0 NMtDT0=    0
         I1Cent=           4 NGrid=           0.
 Symmetry not used in FoFCou.
 Requested convergence on RMS density matrix=1.00D-08 within 128 cycles.
 Requested convergence on MAX density matrix=1.00D-06.
 Requested convergence on             energy=1.00D-06.
 No special actions if energy rises.
 Keep R1 ints in memory in canonical form, NReq=5139081.
 SCF Done:  E(RHF) =  -230.094010027     A.U. after   12 cycles
             Convg  =    0.6482D-08             -V/T =  2.0014

 **********************************************************************

            Population analysis using the SCF density.

 **********************************************************************

 Alpha  occ. eigenvalues --  -20.58040 -20.51817 -11.28733 -11.22765  -1.38692
 Alpha  occ. eigenvalues --   -1.30960  -1.02747  -0.86767  -0.71651  -0.68237
 Alpha  occ. eigenvalues --   -0.64077  -0.62349  -0.56488  -0.54561  -0.53055
 Alpha  occ. eigenvalues --   -0.49479  -0.46321  -0.45762
 Alpha virt. eigenvalues --    0.20277   0.25604   0.25931   0.28966   0.30033
 Alpha virt. eigenvalues --    0.31008   0.32996   0.38472   0.40881   0.45347
 Alpha virt. eigenvalues --    0.71537   0.73582   0.77636   0.79925   0.88451
 Alpha virt. eigenvalues --    0.90654   1.05134   1.07934   1.13714   1.14856
 Alpha virt. eigenvalues --    1.16518   1.17467   1.18404   1.19710   1.20689
 Alpha virt. eigenvalues --    1.21691   1.23392   1.28359   1.34400   1.43627
 Alpha virt. eigenvalues --    1.44391   1.59065   1.68129   1.72168   1.80377
 Alpha virt. eigenvalues --    1.94115   2.01957   2.05816   2.06510   2.09108
 Alpha virt. eigenvalues --    2.10109   2.21173   2.26418   2.42811   2.45065
 Alpha virt. eigenvalues --    2.54686   2.62324   2.69181   2.73871   2.75854
 Alpha virt. eigenvalues --    2.86730   2.98439   3.04408   3.17927   4.10202
 Alpha virt. eigenvalues --    4.30771   4.60015   4.81410
          Condensed to atoms (all electrons):
              1          2          3          4          5          6
     1  C    5.159614   0.346400  -0.051975   0.377822   0.387079   0.387990
     2  C    0.346400   4.761994   0.202536  -0.032606  -0.035704  -0.034980
     3  O   -0.051975   0.202536   8.398686   0.003169  -0.000640   0.001883
     4  H    0.377822  -0.032606   0.003169   0.533177  -0.025756  -0.023261
     5  H    0.387079  -0.035704  -0.000640  -0.025756   0.545685  -0.029073
     6  H    0.387990  -0.034980   0.001883  -0.023261  -0.029073   0.520056
     7  H   -0.053784   0.404269  -0.037167   0.000961  -0.004215   0.004610
     8  H   -0.045341   0.409792  -0.038994  -0.000827   0.004207  -0.004294
     9  H   -0.003228  -0.023829   0.261300  -0.000054   0.003222  -0.000368
    10  H    0.000176  -0.001341   0.022387  -0.000004  -0.000010   0.000041
    11  O   -0.000018   0.000285  -0.008705   0.000000   0.000000  -0.000002
    12  H   -0.000001   0.000000   0.000410   0.000000   0.000000   0.000004
              7          8          9         10         11         12
     1  C   -0.053784  -0.045341  -0.003228   0.000176  -0.000018  -0.000001
     2  C    0.404269   0.409792  -0.023829  -0.001341   0.000285   0.000000
     3  O   -0.037167  -0.038994   0.261300   0.022387  -0.008705   0.000410
     4  H    0.000961  -0.000827  -0.000054  -0.000004   0.000000   0.000000
     5  H   -0.004215   0.004207   0.003222  -0.000010   0.000000   0.000000
     6  H    0.004610  -0.004294  -0.000368   0.000041  -0.000002   0.000004
     7  H    0.574100  -0.036673  -0.004516   0.000198  -0.000015   0.000002
     8  H   -0.036673   0.531977   0.005674  -0.000816   0.000553   0.000032
     9  H   -0.004516   0.005674   0.313948  -0.000833   0.000404  -0.000010
    10  H    0.000198  -0.000816  -0.000833   0.248242   0.260359  -0.016992
    11  O   -0.000015   0.000553   0.000404   0.260359   8.407805   0.266484
    12  H    0.000002   0.000032  -0.000010  -0.016992   0.266484   0.332280
 Mulliken atomic charges:
              1
     1  C   -0.504733
     2  C    0.003183
     3  O   -0.752890
     4  H    0.167379
     5  H    0.155204
     6  H    0.177394
     7  H    0.152231
     8  H    0.174709
     9  H    0.448289
    10  H    0.488592
    11  O   -0.927150
    12  H    0.417791
 Sum of Mulliken atomic charges =   0.00000
 Mulliken charges with hydrogens summed into heavy atoms:
              1
     1  C   -0.004756
     2  C    0.330124
     3  O   -0.304601
    11  O   -0.020766
 Sum of Mulliken charges with hydrogens summed into heavy atoms =   0.00000
 Electronic spatial extent (au):  <R**2>=            734.7121
 Charge=              0.0000 electrons
 Dipole moment (field-independent basis, Debye):
    X=             -3.8671    Y=             -0.2316    Z=              1.7228  Tot=              4.2398
 Quadrupole moment (field-independent basis, Debye-Ang):
   XX=            -42.6237   YY=            -25.5197   ZZ=            -23.6837
   XY=             -1.1067   XZ=              7.9899   YZ=             -1.3090
 Traceless Quadrupole moment (field-independent basis, Debye-Ang):
   XX=            -12.0147   YY=              5.0894   ZZ=              6.9253
   XY=             -1.1067   XZ=              7.9899   YZ=             -1.3090
 Octapole moment (field-independent basis, Debye-Ang**2):
  XXX=           -117.8875  YYY=              0.4411  ZZZ=             31.1211  XYY=            -18.7771
  XXY=              0.1979  XXZ=             49.8788  XZZ=            -24.5976  YZZ=             -0.9164
  YYZ=             17.8479  XYZ=             -2.0560
 Hexadecapole moment (field-independent basis, Debye-Ang**3):
 XXXX=           -761.0752 YYYY=            -58.6918 ZZZZ=           -174.4952 XXXY=              4.9543
 XXXZ=            278.9727 YYYX=              3.2038 YYYZ=             -8.0113 ZZZX=            128.1155
 ZZZY=             -3.6921 XXYY=           -101.5766 XXZZ=           -185.3530 YYZZ=            -53.4687
 XXYZ=             -6.5211 YYXZ=             52.6869 ZZXY=              1.3399
 N-N= 1.290008687715D+02 E-N=-8.001016436160D+02  KE= 2.297618944341D+02
 Calling FoFJK, ICntrl=      2127 FMM=F ISym2X=0 I1Cent= 0 IOpClX= 0 NMat=1 NMatS=1 NMatT=0.
 -------------------------------------------------------------------
 Center     Atomic                   Forces (Hartrees/Bohr)
 Number     Number              X              Y              Z
 -------------------------------------------------------------------
      1        6           0.000600284   -0.000870152    0.000013584
      2        6          -0.004801121    0.004563061    0.000034586
      3        8          -0.001227480   -0.001714616    0.002073220
      4        1           0.000602565    0.000065386   -0.000041313
      5        1          -0.000072380    0.000105281   -0.000145493
      6        1          -0.000272414   -0.000072738   -0.000020431
      7        1           0.001049019   -0.000804741   -0.000822787
      8        1           0.000262772    0.000048754    0.000231592
      9        1           0.002051631   -0.001134264   -0.000417260
     10        1          -0.001592682   -0.000688207    0.004213017
     11        8           0.002662719    0.000817335   -0.005955379
     12        1           0.000737088   -0.000315100    0.000836664
 -------------------------------------------------------------------
 Cartesian Forces:  Max     0.005955379 RMS     0.001883919
 -----------------------------------------------------------------------------------------------
                       Internal Coordinate Forces (Hartree/Bohr or radian)
  Cent   Atom   N1       Length/X         N2         Alpha/Y        N3         Beta/Z          J
 -----------------------------------------------------------------------------------------------
      1  C            0.000600(     1)     -0.000870(    16)      0.000014(    31)
      2  C           -0.004801(     2)      0.004563(    17)      0.000035(    32)
      3  O            0.001197(     3)     -0.002523(    18)      0.001310(    33)
      4  H            0.000603(     4)      0.000065(    19)     -0.000041(    34)
      5  H           -0.000072(     5)      0.000105(    20)     -0.000145(    35)
      6  H           -0.000272(     6)     -0.000073(    21)     -0.000020(    36)
      7  H            0.001049(     7)     -0.000805(    22)     -0.000823(    37)
      8  H            0.000263(     8)      0.000049(    23)      0.000232(    38)
      9  H            0.002052(     9)     -0.001134(    24)     -0.000417(    39)
         X           -0.000339(    10)      0.000481(    25)     -0.000258(    40)
         X           -0.000279(    11)      0.000141(    26)      0.000115(    41)
     10  H        3   0.001852(    12)     11  -0.000740(    27)     10   0.001821(    42)     0
         X       12   0.000000(    13)      3   0.000728(    28)     11  -0.001252(    43)     0
     11  O       12   0.006116(    14)     13   0.000728(    29)     11  -0.000869(    44)     0
     12  H       14  -0.001100(    15)     12   0.000231(    30)     13  -0.000585(    45)     0
 -----------------------------------------------------------------------------------------------
 Internal  Forces:  Max     0.006115964 RMS     0.001587616

 GradGradGradGradGradGradGradGradGradGradGradGradGradGradGradGradGradGrad
 Berny optimization.
 Search for a local minimum.
 Step number   1 out of a maximum of  100
 All quantities printed in internal units (Hartrees-Bohrs-Radians)
 Second derivative matrix not updated -- first step.
 The second derivative matrix:
                          roh       phi
           roh          0.04658
           phi          0.00000   0.00000
     Eigenvalues ---    0.00000   0.04658
 RFO step:  Lambda=-6.22292137D-04 EMin= 6.01058060D-18
 Linear search not attempted -- first point.
 Maximum step size (   0.300) exceeded in Quadratic search.
    -- Step size scaled by   0.319
 Variable       Old X    -DE/DX   Delta X   Delta X   Delta X     New X
                                 (Linear)    (Quad)   (Total)
   roh        3.69101   0.00185   0.00000   0.01252   0.01252   3.70353
   phi        3.83476  -0.00058   0.00000  -0.29974  -0.29974   3.53502
         Item               Value     Threshold  Converged?
 Maximum Force            0.001852     0.000450     NO 
 RMS     Force            0.001374     0.000300     NO 
 Maximum Displacement     0.299739     0.001800     NO 
 RMS     Displacement     0.212132     0.001200     NO 
 Predicted change in Energy=-1.948307D-04
 GradGradGradGradGradGradGradGradGradGradGradGradGradGradGradGradGradGrad

 ---------------------------------------------------------------------------------------------------
                            Z-MATRIX (ANGSTROMS AND DEGREES)
   CD    Cent   Atom    N1       Length/X        N2       Alpha/Y        N3        Beta/Z          J
 ---------------------------------------------------------------------------------------------------
      1      1  C        0  -1.209050         -0.236510         -0.019180
      2      2  C        0   0.089910          0.552930          0.044910
      3      3  O        0   1.222000         -0.262490         -0.110010
      4      4  H        0  -2.067380          0.423870          0.062070
      5      5  H        0  -1.267690         -0.957740          0.792470
      6      6  H        0  -1.276370         -0.778020         -0.956280
      7      7  H        0   0.145550          1.112980          0.976650
      8      8  H        0   0.131480          1.270430         -0.764030
      9      9  H        0   1.273180         -0.870090          0.614760
     10         X        0   0.245700         -0.341150          1.026060
     11         X        0   2.041350          0.728250          0.662710
     12     10  H        3   1.959824(    11)     11   90.000(    24)     10  180.000(    36)      0
     13         X       12   1.500000(    12)      3   90.000(    25)     11    0.000(    37)      0
     14     11  O       12   0.947400(    13)     13   90.000(    26)     11  180.000(    38)      0
     15     12  H       14   0.947400(    14)     12  105.540(    27)     13  202.542(    39)      0
 ---------------------------------------------------------------------------------------------------
                         Z-Matrix orientation:                         
 ---------------------------------------------------------------------
 Center     Atomic      Atomic             Coordinates (Angstroms)
 Number     Number       Type             X           Y           Z
 ---------------------------------------------------------------------
      1          6           0       -1.209050   -0.236510   -0.019180
      2          6           0        0.089910    0.552930    0.044910
      3          8           0        1.222000   -0.262490   -0.110010
      4          1           0       -2.067380    0.423870    0.062070
      5          1           0       -1.267690   -0.957740    0.792470
      6          1           0       -1.276370   -0.778020   -0.956280
      7          1           0        0.145550    1.112980    0.976650
      8          1           0        0.131480    1.270430   -0.764030
      9          1           0        1.273180   -0.870090    0.614760
     10         -1           0        0.245700   -0.341150    1.026060
     11         -1           0        2.041350    0.728250    0.662710
     12          1           0        2.497583   -0.159716   -1.594339
     13         -1           0        3.316934    0.831024   -0.821619
     14          8           0        3.114214   -0.110034   -2.311880
     15          1           0        2.634422   -0.391458   -3.078801
 ---------------------------------------------------------------------
                    Distance matrix (angstroms):
                    1          2          3          4          5
     1  C    0.000000
     2  C    1.521388   0.000000
     3  O    2.432885   1.403758   0.000000
     4  H    1.086017   2.161215   3.364628   0.000000
     5  H    1.087376   2.164266   2.737955   1.755515   0.000000
     6  H    1.084399   2.154189   2.687712   1.762746   1.757982
     7  H    2.155862   1.088527   2.057059   2.491664   2.513772
     8  H    2.150044   1.082090   1.991688   2.496816   3.056977
     9  H    2.639085   1.936451   0.947148   3.624795   2.548585
    10  X    1.794373   1.336527   1.500001   2.620090   1.650787
    11  X    3.458444   2.054393   1.499999   4.163541   3.716066
    12  H    4.028170   2.998649   1.959824   4.891130   4.528905
    13  X    4.718905   3.352893   2.467977   5.471519   5.179164
    14  O    4.895210   3.891066   2.907224   5.724475   5.436605
    15  H    4.915034   4.138113   3.290180   5.712860   5.525748
                    6          7          8          9         10
     6  H    0.000000
     7  H    3.055152   0.000000
     8  H    2.493020   1.747843   0.000000
     9  H    2.996139   2.309779   2.790406   0.000000
    10  X    2.537169   1.458412   2.411360   1.226646   0.000000
    11  X    3.987135   1.959753   2.444821   1.774000   2.121320
    12  H    3.877131   3.709690   2.886724   2.623721   3.459825
    13  X    4.868839   3.656630   3.216133   3.022235   3.770993
    14  O    4.643391   4.595994   3.632936   3.540101   4.407225
    15  H    4.466410   4.990441   3.792724   3.965408   4.749569
                   11         12         13         14         15
    11  X    0.000000
    12  H    2.467976   0.000000
    13  X    1.959824   1.500000   0.000000
    14  O    3.271383   0.947400   1.774138   0.000000
    15  H    3.950238   1.508660   2.656155   0.947400   0.000000
 Symmetry turned off by external request.
 Stoichiometry    C2H8O2
 Framework group  C1[X(C2H8O2)]
 Deg. of freedom    30
 Full point group                 C1      NOp   1
 Rotational constants (GHZ):     17.1072359      2.1770919      2.1040776
 Standard basis: 6-31G(d) (6D, 7F)
 Integral buffers will be    131072 words long.
 Raffenetti 1 integral format.
 Two-electron integral symmetry is turned off.
    76 basis functions,   144 primitive gaussians,    76 cartesian basis functions
    18 alpha electrons       18 beta electrons
       nuclear repulsion energy       128.9102529627 Hartrees.
 NAtoms=   12 NActive=   12 NUniq=   12 SFac= 7.50D-01 NAtFMM=   80 NAOKFM=F Big=F
 One-electron integrals computed using PRISM.
 NBasis=    76 RedAO= T  NBF=    76
 NBsUse=    76 1.00D-06 NBFU=    76
 Initial guess read from the read-write file.
 B after Tr=     0.000000    0.000000    0.000000
         Rot=    1.000000    0.000000    0.000000    0.000000 Ang=   0.00 deg.
 Harris functional with IExCor=  205 diagonalized for initial guess.
 ExpMin= 1.61D-01 ExpMax= 5.48D+03 ExpMxC= 8.25D+02 IAcc=1 IRadAn=         1 AccDes= 0.00D+00
 HarFok:  IExCor=  205 AccDes= 0.00D+00 IRadAn=         1 IDoV= 1
 ScaDFX=  1.000000  1.000000  1.000000  1.000000
 FoFCou: FMM=F IPFlag=           0 FMFlag=      100000 FMFlg1=           0
         NFxFlg=           0 DoJE=T BraDBF=F KetDBF=T FulRan=T
         Omega=  0.000000  0.000000  1.000000  0.000000  0.000000 ICntrl=     500 IOpCl=  0
         NMat0=    1 NMatS0=    1 NMatT0=    0 NMatD0=    1 NMtDS0=    0 NMtDT0=    0
         I1Cent=           4 NGrid=           0.
 Symmetry not used in FoFCou.
 Requested convergence on RMS density matrix=1.00D-08 within 128 cycles.
 Requested convergence on MAX density matrix=1.00D-06.
 Requested convergence on             energy=1.00D-06.
 No special actions if energy rises.
 Keep R1 ints in memory in canonical form, NReq=5139081.
 SCF Done:  E(RHF) =  -230.094195323     A.U. after   12 cycles
             Convg  =    0.6626D-08             -V/T =  2.0014
 Calling FoFJK, ICntrl=      2127 FMM=F ISym2X=0 I1Cent= 0 IOpClX= 0 NMat=1 NMatS=1 NMatT=0.
 -------------------------------------------------------------------
 Center     Atomic                   Forces (Hartrees/Bohr)
 Number     Number              X              Y              Z
 -------------------------------------------------------------------
      1        6           0.000645141   -0.000890859    0.000080235
      2        6          -0.004890027    0.004874356   -0.000189644
      3        8          -0.000944388   -0.002103020    0.001858454
      4        1           0.000611904    0.000052632   -0.000057895
      5        1          -0.000100783    0.000076367   -0.000118379
      6        1          -0.000292701   -0.000052757   -0.000049633
      7        1           0.001063265   -0.000862574   -0.000785638
      8        1           0.000327878   -0.000066429    0.000265332
      9        1           0.002004785   -0.001015346   -0.000316903
     10        1          -0.001676118   -0.000407726    0.004243064
     11        8           0.002626422    0.000336578   -0.005860748
     12        1           0.000624622    0.000058778    0.000931755
 -------------------------------------------------------------------
 Cartesian Forces:  Max     0.005860748 RMS     0.001897507
 -----------------------------------------------------------------------------------------------
                       Internal Coordinate Forces (Hartree/Bohr or radian)
  Cent   Atom   N1       Length/X         N2         Alpha/Y        N3         Beta/Z          J
 -----------------------------------------------------------------------------------------------
      1  C            0.000645(     1)     -0.000891(    16)      0.000080(    31)
      2  C           -0.004890(     2)      0.004874(    17)     -0.000190(    32)
      3  O            0.001149(     3)     -0.002546(    18)      0.001174(    33)
      4  H            0.000612(     4)      0.000053(    19)     -0.000058(    34)
      5  H           -0.000101(     5)      0.000076(    20)     -0.000118(    35)
      6  H           -0.000293(     6)     -0.000053(    21)     -0.000050(    36)
      7  H            0.001063(     7)     -0.000863(    22)     -0.000786(    37)
      8  H            0.000328(     8)     -0.000066(    23)      0.000265(    38)
      9  H            0.002005(     9)     -0.001015(    24)     -0.000317(    39)
         X           -0.000225(    10)      0.000319(    25)     -0.000171(    40)
         X           -0.000294(    11)      0.000111(    26)      0.000169(    41)
     10  H        3   0.001544(    12)     11  -0.000889(    27)     10   0.001209(    42)     0
         X       12   0.000000(    13)      3   0.000958(    28)     11  -0.001156(    43)     0
     11  O       12   0.005870(    14)     13   0.000958(    29)     11  -0.000882(    44)     0
     12  H       14  -0.001088(    15)     12  -0.000008(    30)     13  -0.000481(    45)     0
 -----------------------------------------------------------------------------------------------
 Internal  Forces:  Max     0.005869844 RMS     0.001571938

 GradGradGradGradGradGradGradGradGradGradGradGradGradGradGradGradGradGrad
 Berny optimization.
 Search for a local minimum.
 Step number   2 out of a maximum of  100
 All quantities printed in internal units (Hartrees-Bohrs-Radians)
 Update second derivatives using D2CorN and points    1    2
 DE= -1.85D-04 DEPred=-1.95D-04 R= 9.51D-01
 SS=  1.41D+00  RLast= 3.00D-01 DXNew= 5.0454D-01 9.0000D-01
 Trust test= 9.51D-01 RLast= 3.00D-01 DXMaxT set to 5.05D-01
 The second derivative matrix:
                          roh       phi
           roh          0.04654
           phi          0.00045   0.00034
     Eigenvalues ---    0.00034   0.04655
 RFO step:  Lambda=-3.01286545D-05 EMin= 3.39827832D-04
 Quartic linear search produced a step of  1.33921.
 Variable       Old X    -DE/DX   Delta X   Delta X   Delta X     New X
                                 (Linear)    (Quad)   (Total)
   roh        3.70353   0.00154   0.01676   0.02300   0.03976   3.74329
   phi        3.53502  -0.00048  -0.40141   0.09669  -0.30473   3.23029
         Item               Value     Threshold  Converged?
 Maximum Force            0.001544     0.000450     NO 
 RMS     Force            0.001144     0.000300     NO 
 Maximum Displacement     0.304729     0.001800     NO 
 RMS     Displacement     0.217303     0.001200     NO 
 Predicted change in Energy=-1.607866D-04
 GradGradGradGradGradGradGradGradGradGradGradGradGradGradGradGradGradGrad

 ---------------------------------------------------------------------------------------------------
                            Z-MATRIX (ANGSTROMS AND DEGREES)
   CD    Cent   Atom    N1       Length/X        N2       Alpha/Y        N3        Beta/Z          J
 ---------------------------------------------------------------------------------------------------
      1      1  C        0  -1.209050         -0.236510         -0.019180
      2      2  C        0   0.089910          0.552930          0.044910
      3      3  O        0   1.222000         -0.262490         -0.110010
      4      4  H        0  -2.067380          0.423870          0.062070
      5      5  H        0  -1.267690         -0.957740          0.792470
      6      6  H        0  -1.276370         -0.778020         -0.956280
      7      7  H        0   0.145550          1.112980          0.976650
      8      8  H        0   0.131480          1.270430         -0.764030
      9      9  H        0   1.273180         -0.870090          0.614760
     10         X        0   0.245700         -0.341150          1.026060
     11         X        0   2.041350          0.728250          0.662710
     12     10  H        3   1.980864(    11)     11   90.000(    24)     10  180.000(    36)      0
     13         X       12   1.500000(    12)      3   90.000(    25)     11    0.000(    37)      0
     14     11  O       12   0.947400(    13)     13   90.000(    26)     11  180.000(    38)      0
     15     12  H       14   0.947400(    14)     12  105.540(    27)     13  185.082(    39)      0
 ---------------------------------------------------------------------------------------------------
                         Z-Matrix orientation:                         
 ---------------------------------------------------------------------
 Center     Atomic      Atomic             Coordinates (Angstroms)
 Number     Number       Type             X           Y           Z
 ---------------------------------------------------------------------
      1          6           0       -1.209050   -0.236510   -0.019180
      2          6           0        0.089910    0.552930    0.044910
      3          8           0        1.222000   -0.262490   -0.110010
      4          1           0       -2.067380    0.423870    0.062070
      5          1           0       -1.267690   -0.957740    0.792470
      6          1           0       -1.276370   -0.778020   -0.956280
      7          1           0        0.145550    1.112980    0.976650
      8          1           0        0.131480    1.270430   -0.764030
      9          1           0        1.273180   -0.870090    0.614760
     10         -1           0        0.245700   -0.341150    1.026060
     11         -1           0        2.041350    0.728250    0.662710
     12          1           0        2.511278   -0.158613   -1.610275
     13         -1           0        3.330628    0.832128   -0.837554
     14          8           0        3.127908   -0.108931   -2.327816
     15          1           0        2.753849   -0.635570   -3.020851
 ---------------------------------------------------------------------
                    Distance matrix (angstroms):
                    1          2          3          4          5
     1  C    0.000000
     2  C    1.521388   0.000000
     3  O    2.432885   1.403758   0.000000
     4  H    1.086017   2.161215   3.364628   0.000000
     5  H    1.087376   2.164266   2.737955   1.755515   0.000000
     6  H    1.084399   2.154189   2.687712   1.762746   1.757982
     7  H    2.155862   1.088527   2.057059   2.491664   2.513772
     8  H    2.150044   1.082090   1.991688   2.496816   3.056977
     9  H    2.639085   1.936451   0.947148   3.624795   2.548585
    10  X    1.794373   1.336527   1.500001   2.620090   1.650787
    11  X    3.458444   2.054393   1.499999   4.163541   3.716066
    12  H    4.047034   3.018104   1.980864   4.909188   4.548888
    13  X    4.735019   3.370304   2.484718   5.487667   5.196647
    14  O    4.914802   3.911179   2.928264   5.743383   5.456917
    15  H    4.987369   4.231784   3.310400   5.819885   5.551395
                    6          7          8          9         10
     6  H    0.000000
     7  H    3.055152   0.000000
     8  H    2.493020   1.747843   0.000000
     9  H    2.996139   2.309779   2.790406   0.000000
    10  X    2.537169   1.458412   2.411360   1.226646   0.000000
    11  X    3.987135   1.959753   2.444821   1.774000   2.121320
    12  H    3.893282   3.729048   2.902022   2.643835   3.480865
    13  X    4.881711   3.676267   3.229871   3.039713   3.790306
    14  O    4.661165   4.615953   3.650568   3.560636   4.428265
    15  H    4.530498   5.083372   3.950050   3.932563   4.770219
                   11         12         13         14         15
    11  X    0.000000
    12  H    2.484717   0.000000
    13  X    1.980864   1.500000   0.000000
    14  O    3.290095   0.947400   1.774138   0.000000
    15  H    3.992027   1.508660   2.693250   0.947400   0.000000
 Symmetry turned off by external request.
 Stoichiometry    C2H8O2
 Framework group  C1[X(C2H8O2)]
 Deg. of freedom    30
 Full point group                 C1      NOp   1
 Rotational constants (GHZ):     17.1121751      2.1548373      2.0854241
 Standard basis: 6-31G(d) (6D, 7F)
 Integral buffers will be    131072 words long.
 Raffenetti 1 integral format.
 Two-electron integral symmetry is turned off.
    76 basis functions,   144 primitive gaussians,    76 cartesian basis functions
    18 alpha electrons       18 beta electrons
       nuclear repulsion energy       128.6644013726 Hartrees.
 NAtoms=   12 NActive=   12 NUniq=   12 SFac= 7.50D-01 NAtFMM=   80 NAOKFM=F Big=F
 One-electron integrals computed using PRISM.
 NBasis=    76 RedAO= T  NBF=    76
 NBsUse=    76 1.00D-06 NBFU=    76
 Initial guess read from the read-write file.
 B after Tr=     0.000000    0.000000    0.000000
         Rot=    1.000000    0.000000    0.000000    0.000000 Ang=   0.00 deg.
 Harris functional with IExCor=  205 diagonalized for initial guess.
 ExpMin= 1.61D-01 ExpMax= 5.48D+03 ExpMxC= 8.25D+02 IAcc=1 IRadAn=         1 AccDes= 0.00D+00
 HarFok:  IExCor=  205 AccDes= 0.00D+00 IRadAn=         1 IDoV= 1
 ScaDFX=  1.000000  1.000000  1.000000  1.000000
 FoFCou: FMM=F IPFlag=           0 FMFlag=      100000 FMFlg1=           0
         NFxFlg=           0 DoJE=T BraDBF=F KetDBF=T FulRan=T
         Omega=  0.000000  0.000000  1.000000  0.000000  0.000000 ICntrl=     500 IOpCl=  0
         NMat0=    1 NMatS0=    1 NMatT0=    0 NMatD0=    1 NMtDS0=    0 NMtDT0=    0
         I1Cent=           4 NGrid=           0.
 Symmetry not used in FoFCou.
 Requested convergence on RMS density matrix=1.00D-08 within 128 cycles.
 Requested convergence on MAX density matrix=1.00D-06.
 Requested convergence on             energy=1.00D-06.
 No special actions if energy rises.
 Keep R1 ints in memory in canonical form, NReq=5139081.
 SCF Done:  E(RHF) =  -230.094355668     A.U. after   12 cycles
             Convg  =    0.6832D-08             -V/T =  2.0015
 Calling FoFJK, ICntrl=      2127 FMM=F ISym2X=0 I1Cent= 0 IOpClX= 0 NMat=1 NMatS=1 NMatT=0.
 -------------------------------------------------------------------
 Center     Atomic                   Forces (Hartrees/Bohr)
 Number     Number              X              Y              Z
 -------------------------------------------------------------------
      1        6           0.000674080   -0.000905824    0.000100665
      2        6          -0.004938048    0.005053141   -0.000414323
      3        8          -0.000365603   -0.002441912    0.001458174
      4        1           0.000614189    0.000043503   -0.000065095
      5        1          -0.000121157    0.000053157   -0.000076550
      6        1          -0.000289410   -0.000015081   -0.000069076
      7        1           0.001070416   -0.000902319   -0.000729378
      8        1           0.000349544   -0.000178547    0.000286817
      9        1           0.001886239   -0.000853928   -0.000195186
     10        1          -0.001901123   -0.000156372    0.004271805
     11        8           0.002637207   -0.000155220   -0.005476483
     12        1           0.000383665    0.000459402    0.000908632
 -------------------------------------------------------------------
 Cartesian Forces:  Max     0.005476483 RMS     0.001879633
 -----------------------------------------------------------------------------------------------
                       Internal Coordinate Forces (Hartree/Bohr or radian)
  Cent   Atom   N1       Length/X         N2         Alpha/Y        N3         Beta/Z          J
 -----------------------------------------------------------------------------------------------
      1  C            0.000674(     1)     -0.000906(    16)      0.000101(    31)
      2  C           -0.004938(     2)      0.005053(    17)     -0.000414(    32)
      3  O            0.001118(     3)     -0.002485(    18)      0.001022(    33)
      4  H            0.000614(     4)      0.000044(    19)     -0.000065(    34)
      5  H           -0.000121(     5)      0.000053(    20)     -0.000077(    35)
      6  H           -0.000289(     6)     -0.000015(    21)     -0.000069(    36)
      7  H            0.001070(     7)     -0.000902(    22)     -0.000729(    37)
      8  H            0.000350(     8)     -0.000179(    23)      0.000287(    38)
      9  H            0.001886(     9)     -0.000854(    24)     -0.000195(    39)
         X           -0.000104(    10)      0.000147(    25)     -0.000079(    40)
         X           -0.000260(    11)      0.000044(    26)      0.000219(    41)
     10  H        3   0.000961(    12)     11  -0.000944(    27)     10   0.000557(    42)     0
         X       12   0.000000(    13)      3   0.001140(    28)     11  -0.000834(    43)     0
     11  O       12   0.005442(    14)     13   0.001140(    29)     11  -0.000794(    44)     0
     12  H       14  -0.001072(    15)     12  -0.000237(    30)     13  -0.000233(    45)     0
 -----------------------------------------------------------------------------------------------
 Internal  Forces:  Max     0.005441730 RMS     0.001523682

 GradGradGradGradGradGradGradGradGradGradGradGradGradGradGradGradGradGrad
 Berny optimization.
 Search for a local minimum.
 Step number   3 out of a maximum of  100
 All quantities printed in internal units (Hartrees-Bohrs-Radians)
 Update second derivatives using D2CorN and points    2    3
 DE= -1.60D-04 DEPred=-1.61D-04 R= 9.97D-01
 SS=  1.41D+00  RLast= 3.07D-01 DXNew= 8.4853D-01 9.2194D-01
 Trust test= 9.97D-01 RLast= 3.07D-01 DXMaxT set to 8.49D-01
 The second derivative matrix:
                          roh       phi
           roh          0.04607
           phi          0.00224   0.00087
     Eigenvalues ---    0.00075   0.04618
 RFO step:  Lambda=-5.38890457D-06 EMin= 7.54956920D-04
 Quartic linear search produced a step of  0.91317.
 Variable       Old X    -DE/DX   Delta X   Delta X   Delta X     New X
                                 (Linear)    (Quad)   (Total)
   roh        3.74329   0.00096   0.03631   0.00693   0.04324   3.78653
   phi        3.23029  -0.00023  -0.27827   0.04515  -0.23312   2.99717
         Item               Value     Threshold  Converged?
 Maximum Force            0.000961     0.000450     NO 
 RMS     Force            0.000699     0.000300     NO 
 Maximum Displacement     0.233119     0.001800     NO 
 RMS     Displacement     0.167651     0.001200     NO 
 Predicted change in Energy=-5.181968D-05
 GradGradGradGradGradGradGradGradGradGradGradGradGradGradGradGradGradGrad

 ---------------------------------------------------------------------------------------------------
                            Z-MATRIX (ANGSTROMS AND DEGREES)
   CD    Cent   Atom    N1       Length/X        N2       Alpha/Y        N3        Beta/Z          J
 ---------------------------------------------------------------------------------------------------
      1      1  C        0  -1.209050         -0.236510         -0.019180
      2      2  C        0   0.089910          0.552930          0.044910
      3      3  O        0   1.222000         -0.262490         -0.110010
      4      4  H        0  -2.067380          0.423870          0.062070
      5      5  H        0  -1.267690         -0.957740          0.792470
      6      6  H        0  -1.276370         -0.778020         -0.956280
      7      7  H        0   0.145550          1.112980          0.976650
      8      8  H        0   0.131480          1.270430         -0.764030
      9      9  H        0   1.273180         -0.870090          0.614760
     10         X        0   0.245700         -0.341150          1.026060
     11         X        0   2.041350          0.728250          0.662710
     12     10  H        3   2.003744(    11)     11   90.000(    24)     10  180.000(    36)      0
     13         X       12   1.500000(    12)      3   90.000(    25)     11    0.000(    37)      0
     14     11  O       12   0.947400(    13)     13   90.000(    26)     11  180.000(    38)      0
     15     12  H       14   0.947400(    14)     12  105.540(    27)     13  171.725(    39)      0
 ---------------------------------------------------------------------------------------------------
                         Z-Matrix orientation:                         
 ---------------------------------------------------------------------
 Center     Atomic      Atomic             Coordinates (Angstroms)
 Number     Number       Type             X           Y           Z
 ---------------------------------------------------------------------
      1          6           0       -1.209050   -0.236510   -0.019180
      2          6           0        0.089910    0.552930    0.044910
      3          8           0        1.222000   -0.262490   -0.110010
      4          1           0       -2.067380    0.423870    0.062070
      5          1           0       -1.267690   -0.957740    0.792470
      6          1           0       -1.276370   -0.778020   -0.956280
      7          1           0        0.145550    1.112980    0.976650
      8          1           0        0.131480    1.270430   -0.764030
      9          1           0        1.273180   -0.870090    0.614760
     10         -1           0        0.245700   -0.341150    1.026060
     11         -1           0        2.041350    0.728250    0.662710
     12          1           0        2.526169   -0.157413   -1.627604
     13         -1           0        3.345520    0.833328   -0.854883
     14          8           0        3.142800   -0.107731   -2.345145
     15          1           0        2.883866   -0.789416   -2.949980
 ---------------------------------------------------------------------
                    Distance matrix (angstroms):
                    1          2          3          4          5
     1  C    0.000000
     2  C    1.521388   0.000000
     3  O    2.432885   1.403758   0.000000
     4  H    1.086017   2.161215   3.364628   0.000000
     5  H    1.087376   2.164266   2.737955   1.755515   0.000000
     6  H    1.084399   2.154189   2.687712   1.762746   1.757982
     7  H    2.155862   1.088527   2.057059   2.491664   2.513772
     8  H    2.150044   1.082090   1.991688   2.496816   3.056977
     9  H    2.639085   1.936451   0.947148   3.624795   2.548585
    10  X    1.794373   1.336527   1.500001   2.620090   1.650787
    11  X    3.458444   2.054393   1.499999   4.163541   3.716066
    12  H    4.067573   3.039284   2.003744   4.928852   4.570629
    13  X    4.752585   3.389284   2.502996   5.505265   5.215688
    14  O    4.936121   3.933061   2.951144   5.763962   5.479011
    15  H    5.064312   4.310157   3.332399   5.921094   5.591931
                    6          7          8          9         10
     6  H    0.000000
     7  H    3.055152   0.000000
     8  H    2.493020   1.747843   0.000000
     9  H    2.996139   2.309779   2.790406   0.000000
    10  X    2.537169   1.458412   2.411360   1.226646   0.000000
    11  X    3.987135   1.959753   2.444821   1.774000   2.121320
    12  H    3.910899   3.750118   2.918738   2.665724   3.503745
    13  X    4.895773   3.697638   3.244898   3.058770   3.811329
    14  O    4.680523   4.637668   3.669782   3.582974   4.451145
    15  H    4.613300   5.151302   4.073939   3.912569   4.792678
                   11         12         13         14         15
    11  X    0.000000
    12  H    2.502995   0.000000
    13  X    2.003744   1.500000   0.000000
    14  O    3.310475   0.947400   1.774138   0.000000
    15  H    4.008076   1.508660   2.689954   0.947400   0.000000
 Symmetry turned off by external request.
 Stoichiometry    C2H8O2
 Framework group  C1[X(C2H8O2)]
 Deg. of freedom    30
 Full point group                 C1      NOp   1
 Rotational constants (GHZ):     17.1237512      2.1311930      2.0658774
 Standard basis: 6-31G(d) (6D, 7F)
 Integral buffers will be    131072 words long.
 Raffenetti 1 integral format.
 Two-electron integral symmetry is turned off.
    76 basis functions,   144 primitive gaussians,    76 cartesian basis functions
    18 alpha electrons       18 beta electrons
       nuclear repulsion energy       128.4073491949 Hartrees.
 NAtoms=   12 NActive=   12 NUniq=   12 SFac= 7.50D-01 NAtFMM=   80 NAOKFM=F Big=F
 One-electron integrals computed using PRISM.
 NBasis=    76 RedAO= T  NBF=    76
 NBsUse=    76 1.00D-06 NBFU=    76
 Initial guess read from the read-write file.
 B after Tr=     0.000000    0.000000    0.000000
         Rot=    1.000000    0.000000    0.000000    0.000000 Ang=   0.00 deg.
 Harris functional with IExCor=  205 diagonalized for initial guess.
 ExpMin= 1.61D-01 ExpMax= 5.48D+03 ExpMxC= 8.25D+02 IAcc=1 IRadAn=         1 AccDes= 0.00D+00
 HarFok:  IExCor=  205 AccDes= 0.00D+00 IRadAn=         1 IDoV= 1
 ScaDFX=  1.000000  1.000000  1.000000  1.000000
 FoFCou: FMM=F IPFlag=           0 FMFlag=      100000 FMFlg1=           0
         NFxFlg=           0 DoJE=T BraDBF=F KetDBF=T FulRan=T
         Omega=  0.000000  0.000000  1.000000  0.000000  0.000000 ICntrl=     500 IOpCl=  0
         NMat0=    1 NMatS0=    1 NMatT0=    0 NMatD0=    1 NMtDS0=    0 NMtDT0=    0
         I1Cent=           4 NGrid=           0.
 Symmetry not used in FoFCou.
 Requested convergence on RMS density matrix=1.00D-08 within 128 cycles.
 Requested convergence on MAX density matrix=1.00D-06.
 Requested convergence on             energy=1.00D-06.
 No special actions if energy rises.
 Keep R1 ints in memory in canonical form, NReq=5139081.
 SCF Done:  E(RHF) =  -230.094415044     A.U. after   12 cycles
             Convg  =    0.4941D-08             -V/T =  2.0015
 Calling FoFJK, ICntrl=      2127 FMM=F ISym2X=0 I1Cent= 0 IOpClX= 0 NMat=1 NMatS=1 NMatT=0.
 -------------------------------------------------------------------
 Center     Atomic                   Forces (Hartrees/Bohr)
 Number     Number              X              Y              Z
 -------------------------------------------------------------------
      1        6           0.000684961   -0.000914647    0.000085428
      2        6          -0.004947890    0.005098942   -0.000560262
      3        8           0.000180946   -0.002641857    0.001128119
      4        1           0.000612146    0.000040741   -0.000063602
      5        1          -0.000130379    0.000040606   -0.000040903
      6        1          -0.000273291    0.000018314   -0.000074865
      7        1           0.001071459   -0.000916558   -0.000682894
      8        1           0.000340956   -0.000247587    0.000297654
      9        1           0.001748750   -0.000725961   -0.000103623
     10        1          -0.002126865   -0.000004942    0.004268667
     11        8           0.002695463   -0.000451663   -0.005057884
     12        1           0.000143744    0.000704611    0.000804164
 -------------------------------------------------------------------
 Cartesian Forces:  Max     0.005098942 RMS     0.001857052
 -----------------------------------------------------------------------------------------------
                       Internal Coordinate Forces (Hartree/Bohr or radian)
  Cent   Atom   N1       Length/X         N2         Alpha/Y        N3         Beta/Z          J
 -----------------------------------------------------------------------------------------------
      1  C            0.000685(     1)     -0.000915(    16)      0.000085(    31)
      2  C           -0.004948(     2)      0.005099(    17)     -0.000560(    32)
      3  O            0.001123(     3)     -0.002403(    18)      0.000912(    33)
      4  H            0.000612(     4)      0.000041(    19)     -0.000064(    34)
      5  H           -0.000130(     5)      0.000041(    20)     -0.000041(    35)
      6  H           -0.000273(     6)      0.000018(    21)     -0.000075(    36)
      7  H            0.001071(     7)     -0.000917(    22)     -0.000683(    37)
      8  H            0.000341(     8)     -0.000248(    23)      0.000298(    38)
      9  H            0.001749(     9)     -0.000726(    24)     -0.000104(    39)
         X           -0.000016(    10)      0.000022(    25)     -0.000012(    40)
         X           -0.000214(    11)     -0.000012(    26)      0.000243(    41)
     10  H        3   0.000465(    12)     11  -0.000918(    27)     10   0.000083(    42)     0
         X       12   0.000000(    13)      3   0.001205(    28)     11  -0.000510(    43)     0
     11  O       12   0.005083(    14)     13   0.001205(    29)     11  -0.000658(    44)     0
     12  H       14  -0.001060(    15)     12  -0.000362(    30)     13  -0.000017(    45)     0
 -----------------------------------------------------------------------------------------------
 Internal  Forces:  Max     0.005098942 RMS     0.001480482

 GradGradGradGradGradGradGradGradGradGradGradGradGradGradGradGradGradGrad
 Berny optimization.
 Search for a local minimum.
 Step number   4 out of a maximum of  100
 All quantities printed in internal units (Hartrees-Bohrs-Radians)
 Update second derivatives using D2CorN and points    2    3    4
 DE= -5.94D-05 DEPred=-5.18D-05 R= 1.15D+00
 SS=  1.41D+00  RLast= 2.37D-01 DXNew= 1.4270D+00 7.1128D-01
 Trust test= 1.15D+00 RLast= 2.37D-01 DXMaxT set to 8.49D-01
 The second derivative matrix:
                          roh       phi
           roh          0.04514
           phi          0.00489   0.00158
     Eigenvalues ---    0.00104   0.04569
 RFO step:  Lambda=-2.30551141D-06 EMin= 1.03893804D-03
 Quartic linear search produced a step of  0.36061.
 Variable       Old X    -DE/DX   Delta X   Delta X   Delta X     New X
                                 (Linear)    (Quad)   (Total)
   roh        3.78653   0.00047   0.01559   0.00410   0.01969   3.80621
   phi        2.99717  -0.00002  -0.08407   0.02106  -0.06301   2.93416
         Item               Value     Threshold  Converged?
 Maximum Force            0.000465     0.000450     NO 
 RMS     Force            0.000329     0.000300     NO 
 Maximum Displacement     0.063006     0.001800     NO 
 RMS     Displacement     0.046677     0.001200     NO 
 Predicted change in Energy=-4.424922D-06
 GradGradGradGradGradGradGradGradGradGradGradGradGradGradGradGradGradGrad

 ---------------------------------------------------------------------------------------------------
                            Z-MATRIX (ANGSTROMS AND DEGREES)
   CD    Cent   Atom    N1       Length/X        N2       Alpha/Y        N3        Beta/Z          J
 ---------------------------------------------------------------------------------------------------
      1      1  C        0  -1.209050         -0.236510         -0.019180
      2      2  C        0   0.089910          0.552930          0.044910
      3      3  O        0   1.222000         -0.262490         -0.110010
      4      4  H        0  -2.067380          0.423870          0.062070
      5      5  H        0  -1.267690         -0.957740          0.792470
      6      6  H        0  -1.276370         -0.778020         -0.956280
      7      7  H        0   0.145550          1.112980          0.976650
      8      8  H        0   0.131480          1.270430         -0.764030
      9      9  H        0   1.273180         -0.870090          0.614760
     10         X        0   0.245700         -0.341150          1.026060
     11         X        0   2.041350          0.728250          0.662710
     12     10  H        3   2.014162(    11)     11   90.000(    24)     10  180.000(    36)      0
     13         X       12   1.500000(    12)      3   90.000(    25)     11    0.000(    37)      0
     14     11  O       12   0.947400(    13)     13   90.000(    26)     11  180.000(    38)      0
     15     12  H       14   0.947400(    14)     12  105.540(    27)     13  168.115(    39)      0
 ---------------------------------------------------------------------------------------------------
                         Z-Matrix orientation:                         
 ---------------------------------------------------------------------
 Center     Atomic      Atomic             Coordinates (Angstroms)
 Number     Number       Type             X           Y           Z
 ---------------------------------------------------------------------
      1          6           0       -1.209050   -0.236510   -0.019180
      2          6           0        0.089910    0.552930    0.044910
      3          8           0        1.222000   -0.262490   -0.110010
      4          1           0       -2.067380    0.423870    0.062070
      5          1           0       -1.267690   -0.957740    0.792470
      6          1           0       -1.276370   -0.778020   -0.956280
      7          1           0        0.145550    1.112980    0.976650
      8          1           0        0.131480    1.270430   -0.764030
      9          1           0        1.273180   -0.870090    0.614760
     10         -1           0        0.245700   -0.341150    1.026060
     11         -1           0        2.041350    0.728250    0.662710
     12          1           0        2.532950   -0.156867   -1.635494
     13         -1           0        3.352301    0.833874   -0.862774
     14          8           0        3.149581   -0.107185   -2.353035
     15          1           0        2.925994   -0.824626   -2.929971
 ---------------------------------------------------------------------
                    Distance matrix (angstroms):
                    1          2          3          4          5
     1  C    0.000000
     2  C    1.521388   0.000000
     3  O    2.432885   1.403758   0.000000
     4  H    1.086017   2.161215   3.364628   0.000000
     5  H    1.087376   2.164266   2.737955   1.755515   0.000000
     6  H    1.084399   2.154189   2.687712   1.762746   1.757982
     7  H    2.155862   1.088527   2.057059   2.491664   2.513772
     8  H    2.150044   1.082090   1.991688   2.496816   3.056977
     9  H    2.639085   1.936451   0.947148   3.624795   2.548585
    10  X    1.794373   1.336527   1.500001   2.620090   1.650787
    11  X    3.458444   2.054393   1.499999   4.163541   3.716066
    12  H    4.076933   3.048937   2.014162   4.937815   4.580532
    13  X    4.760598   3.397943   2.511344   5.513291   5.224369
    14  O    4.945834   3.943029   2.961562   5.773338   5.489074
    15  H    5.090891   4.334853   3.342420   5.953557   5.609035
                    6          7          8          9         10
     6  H    0.000000
     7  H    3.055152   0.000000
     8  H    2.493020   1.747843   0.000000
     9  H    2.996139   2.309779   2.790406   0.000000
    10  X    2.537169   1.458412   2.411360   1.226646   0.000000
    11  X    3.987135   1.959753   2.444821   1.774000   2.121320
    12  H    3.918939   3.759719   2.926378   2.675697   3.514164
    13  X    4.902198   3.707375   3.251772   3.067465   3.820909
    14  O    4.689348   4.647559   3.678545   3.593148   4.461564
    15  H    4.643005   5.171738   4.109728   3.911391   4.802906
                   11         12         13         14         15
    11  X    0.000000
    12  H    2.511343   0.000000
    13  X    2.014162   1.500000   0.000000
    14  O    3.319766   0.947400   1.774138   0.000000
    15  H    4.012652   1.508660   2.684336   0.947400   0.000000
 Symmetry turned off by external request.
 Stoichiometry    C2H8O2
 Framework group  C1[X(C2H8O2)]
 Deg. of freedom    30
 Full point group                 C1      NOp   1
 Rotational constants (GHZ):     17.1218601      2.1212182      2.0572117
 Standard basis: 6-31G(d) (6D, 7F)
 Integral buffers will be    131072 words long.
 Raffenetti 1 integral format.
 Two-electron integral symmetry is turned off.
    76 basis functions,   144 primitive gaussians,    76 cartesian basis functions
    18 alpha electrons       18 beta electrons
       nuclear repulsion energy       128.2955910888 Hartrees.
 NAtoms=   12 NActive=   12 NUniq=   12 SFac= 7.50D-01 NAtFMM=   80 NAOKFM=F Big=F
 One-electron integrals computed using PRISM.
 NBasis=    76 RedAO= T  NBF=    76
 NBsUse=    76 1.00D-06 NBFU=    76
 Initial guess read from the read-write file.
 B after Tr=     0.000000    0.000000    0.000000
         Rot=    1.000000    0.000000    0.000000    0.000000 Ang=   0.00 deg.
 Harris functional with IExCor=  205 diagonalized for initial guess.
 ExpMin= 1.61D-01 ExpMax= 5.48D+03 ExpMxC= 8.25D+02 IAcc=1 IRadAn=         1 AccDes= 0.00D+00
 HarFok:  IExCor=  205 AccDes= 0.00D+00 IRadAn=         1 IDoV= 1
 ScaDFX=  1.000000  1.000000  1.000000  1.000000
 FoFCou: FMM=F IPFlag=           0 FMFlag=      100000 FMFlg1=           0
         NFxFlg=           0 DoJE=T BraDBF=F KetDBF=T FulRan=T
         Omega=  0.000000  0.000000  1.000000  0.000000  0.000000 ICntrl=     500 IOpCl=  0
         NMat0=    1 NMatS0=    1 NMatT0=    0 NMatD0=    1 NMtDS0=    0 NMtDT0=    0
         I1Cent=           4 NGrid=           0.
 Symmetry not used in FoFCou.
 Requested convergence on RMS density matrix=1.00D-08 within 128 cycles.
 Requested convergence on MAX density matrix=1.00D-06.
 Requested convergence on             energy=1.00D-06.
 No special actions if energy rises.
 Keep R1 ints in memory in canonical form, NReq=5139081.
 SCF Done:  E(RHF) =  -230.094421612     A.U. after    9 cycles
             Convg  =    0.9723D-08             -V/T =  2.0015
 Calling FoFJK, ICntrl=      2127 FMM=F ISym2X=0 I1Cent= 0 IOpClX= 0 NMat=1 NMatS=1 NMatT=0.
 -------------------------------------------------------------------
 Center     Atomic                   Forces (Hartrees/Bohr)
 Number     Number              X              Y              Z
 -------------------------------------------------------------------
      1        6           0.000684013   -0.000913226    0.000077910
      2        6          -0.004929028    0.005081845   -0.000592123
      3        8           0.000378792   -0.002675609    0.000988398
      4        1           0.000609346    0.000040305   -0.000062227
      5        1          -0.000131571    0.000037864   -0.000031341
      6        1          -0.000266786    0.000026999   -0.000075002
      7        1           0.001067248   -0.000914909   -0.000668478
      8        1           0.000333364   -0.000261215    0.000299990
      9        1           0.001698390   -0.000689182   -0.000080946
     10        1          -0.002207068    0.000026695    0.004272347
     11        8           0.002691576   -0.000511827   -0.004896390
     12        1           0.000071724    0.000752261    0.000767862
 -------------------------------------------------------------------
 Cartesian Forces:  Max     0.005081845 RMS     0.001843588
 -----------------------------------------------------------------------------------------------
                       Internal Coordinate Forces (Hartree/Bohr or radian)
  Cent   Atom   N1       Length/X         N2         Alpha/Y        N3         Beta/Z          J
 -----------------------------------------------------------------------------------------------
      1  C            0.000684(     1)     -0.000913(    16)      0.000078(    31)
      2  C           -0.004929(     2)      0.005082(    17)     -0.000592(    32)
      3  O            0.001129(     3)     -0.002373(    18)      0.000882(    33)
      4  H            0.000609(     4)      0.000040(    19)     -0.000062(    34)
      5  H           -0.000132(     5)      0.000038(    20)     -0.000031(    35)
      6  H           -0.000267(     6)      0.000027(    21)     -0.000075(    36)
      7  H            0.001067(     7)     -0.000915(    22)     -0.000668(    37)
      8  H            0.000333(     8)     -0.000261(    23)      0.000300(    38)
      9  H            0.001698(     9)     -0.000689(    24)     -0.000081(    39)
         X            0.000006(    10)     -0.000009(    25)      0.000005(    40)
         X           -0.000200(    11)     -0.000026(    26)      0.000245(    41)
     10  H        3   0.000267(    12)     11  -0.000900(    27)     10  -0.000034(    42)     0
         X       12   0.000000(    13)      3   0.001210(    28)     11  -0.000417(    43)     0
     11  O       12   0.004938(    14)     13   0.001210(    29)     11  -0.000608(    44)     0
     12  H       14  -0.001054(    15)     12  -0.000396(    30)     13   0.000036(    45)     0
 -----------------------------------------------------------------------------------------------
 Internal  Forces:  Max     0.005081845 RMS     0.001461395

 GradGradGradGradGradGradGradGradGradGradGradGradGradGradGradGradGradGrad
 Berny optimization.
 Search for a local minimum.
 Step number   5 out of a maximum of  100
 All quantities printed in internal units (Hartrees-Bohrs-Radians)
 Update second derivatives using D2CorN and points    3    4    5
 DE= -6.57D-06 DEPred=-4.42D-06 R= 1.48D+00
 SS=  1.41D+00  RLast= 6.60D-02 DXNew= 1.4270D+00 1.9803D-01
 Trust test= 1.48D+00 RLast= 6.60D-02 DXMaxT set to 8.49D-01
 The second derivative matrix:
                          roh       phi
           roh          0.04329
           phi          0.00807   0.00265
     Eigenvalues ---    0.00110   0.04484
 RFO step:  Lambda=-1.23150797D-06 EMin= 1.10340653D-03
 Quartic linear search produced a step of  0.43067.
 Variable       Old X    -DE/DX   Delta X   Delta X   Delta X     New X
                                 (Linear)    (Quad)   (Total)
   roh        3.80621   0.00027   0.00848   0.00047   0.00895   3.81516
   phi        2.93416   0.00004  -0.02714   0.02010  -0.00704   2.92713
         Item               Value     Threshold  Converged?
 Maximum Force            0.000267     0.000450     YES
 RMS     Force            0.000191     0.000300     YES
 Maximum Displacement     0.008946     0.001800     NO 
 RMS     Displacement     0.008048     0.001200     NO 
 Predicted change in Energy=-8.449215D-07
 GradGradGradGradGradGradGradGradGradGradGradGradGradGradGradGradGradGrad

 ---------------------------------------------------------------------------------------------------
                            Z-MATRIX (ANGSTROMS AND DEGREES)
   CD    Cent   Atom    N1       Length/X        N2       Alpha/Y        N3        Beta/Z          J
 ---------------------------------------------------------------------------------------------------
      1      1  C        0  -1.209050         -0.236510         -0.019180
      2      2  C        0   0.089910          0.552930          0.044910
      3      3  O        0   1.222000         -0.262490         -0.110010
      4      4  H        0  -2.067380          0.423870          0.062070
      5      5  H        0  -1.267690         -0.957740          0.792470
      6      6  H        0  -1.276370         -0.778020         -0.956280
      7      7  H        0   0.145550          1.112980          0.976650
      8      8  H        0   0.131480          1.270430         -0.764030
      9      9  H        0   1.273180         -0.870090          0.614760
     10         X        0   0.245700         -0.341150          1.026060
     11         X        0   2.041350          0.728250          0.662710
     12     10  H        3   2.018896(    11)     11   90.000(    24)     10  180.000(    36)      0
     13         X       12   1.500000(    12)      3   90.000(    25)     11    0.000(    37)      0
     14     11  O       12   0.947400(    13)     13   90.000(    26)     11  180.000(    38)      0
     15     12  H       14   0.947400(    14)     12  105.540(    27)     13  167.712(    39)      0
 ---------------------------------------------------------------------------------------------------
                         Z-Matrix orientation:                         
 ---------------------------------------------------------------------
 Center     Atomic      Atomic             Coordinates (Angstroms)
 Number     Number       Type             X           Y           Z
 ---------------------------------------------------------------------
      1          6           0       -1.209050   -0.236510   -0.019180
      2          6           0        0.089910    0.552930    0.044910
      3          8           0        1.222000   -0.262490   -0.110010
      4          1           0       -2.067380    0.423870    0.062070
      5          1           0       -1.267690   -0.957740    0.792470
      6          1           0       -1.276370   -0.778020   -0.956280
      7          1           0        0.145550    1.112980    0.976650
      8          1           0        0.131480    1.270430   -0.764030
      9          1           0        1.273180   -0.870090    0.614760
     10         -1           0        0.245700   -0.341150    1.026060
     11         -1           0        2.041350    0.728250    0.662710
     12          1           0        2.536031   -0.156619   -1.639080
     13         -1           0        3.355382    0.834122   -0.866359
     14          8           0        3.152662   -0.106937   -2.356621
     15          1           0        2.933121   -0.828193   -2.930344
 ---------------------------------------------------------------------
                    Distance matrix (angstroms):
                    1          2          3          4          5
     1  C    0.000000
     2  C    1.521388   0.000000
     3  O    2.432885   1.403758   0.000000
     4  H    1.086017   2.161215   3.364628   0.000000
     5  H    1.087376   2.164266   2.737955   1.755515   0.000000
     6  H    1.084399   2.154189   2.687712   1.762746   1.757982
     7  H    2.155862   1.088527   2.057059   2.491664   2.513772
     8  H    2.150044   1.082090   1.991688   2.496816   3.056977
     9  H    2.639085   1.936451   0.947148   3.624795   2.548585
    10  X    1.794373   1.336527   1.500001   2.620090   1.650787
    11  X    3.458444   2.054393   1.499999   4.163541   3.716066
    12  H    4.081188   3.053325   2.018896   4.941890   4.585033
    13  X    4.764242   3.401880   2.515142   5.516941   5.228315
    14  O    4.950248   3.947559   2.966296   5.777600   5.493646
    15  H    5.097307   4.340908   3.346974   5.960471   5.614529
                    6          7          8          9         10
     6  H    0.000000
     7  H    3.055152   0.000000
     8  H    2.493020   1.747843   0.000000
     9  H    2.996139   2.309779   2.790406   0.000000
    10  X    2.537169   1.458412   2.411360   1.226646   0.000000
    11  X    3.987135   1.959753   2.444821   1.774000   2.121320
    12  H    3.922596   3.764083   2.929854   2.680229   3.518897
    13  X    4.905121   3.711801   3.254901   3.071420   3.825263
    14  O    4.693361   4.652055   3.682530   3.597771   4.466297
    15  H    4.649651   5.177191   4.116591   3.914705   4.807554
                   11         12         13         14         15
    11  X    0.000000
    12  H    2.515142   0.000000
    13  X    2.018896   1.500000   0.000000
    14  O    3.323990   0.947400   1.774138   0.000000
    15  H    4.015944   1.508660   2.683585   0.947400   0.000000
 Symmetry turned off by external request.
 Stoichiometry    C2H8O2
 Framework group  C1[X(C2H8O2)]
 Deg. of freedom    30
 Full point group                 C1      NOp   1
 Rotational constants (GHZ):     17.1150506      2.1171335      2.0533677
 Standard basis: 6-31G(d) (6D, 7F)
 Integral buffers will be    131072 words long.
 Raffenetti 1 integral format.
 Two-electron integral symmetry is turned off.
    76 basis functions,   144 primitive gaussians,    76 cartesian basis functions
    18 alpha electrons       18 beta electrons
       nuclear repulsion energy       128.2471727259 Hartrees.
 NAtoms=   12 NActive=   12 NUniq=   12 SFac= 7.50D-01 NAtFMM=   80 NAOKFM=F Big=F
 One-electron integrals computed using PRISM.
 NBasis=    76 RedAO= T  NBF=    76
 NBsUse=    76 1.00D-06 NBFU=    76
 Initial guess read from the read-write file.
 B after Tr=     0.000000    0.000000    0.000000
         Rot=    1.000000    0.000000    0.000000    0.000000 Ang=   0.00 deg.
 Requested convergence on RMS density matrix=1.00D-08 within 128 cycles.
 Requested convergence on MAX density matrix=1.00D-06.
 Requested convergence on             energy=1.00D-06.
 No special actions if energy rises.
 Keep R1 ints in memory in canonical form, NReq=5139081.
 SCF Done:  E(RHF) =  -230.094423333     A.U. after    7 cycles
             Convg  =    0.6819D-08             -V/T =  2.0015
 Calling FoFJK, ICntrl=      2127 FMM=F ISym2X=0 I1Cent= 0 IOpClX= 0 NMat=1 NMatS=1 NMatT=0.
 -------------------------------------------------------------------
 Center     Atomic                   Forces (Hartrees/Bohr)
 Number     Number              X              Y              Z
 -------------------------------------------------------------------
      1        6           0.000681405   -0.000909558    0.000077292
      2        6          -0.004909010    0.005061895   -0.000593223
      3        8           0.000443783   -0.002669604    0.000918920
      4        1           0.000607209    0.000039891   -0.000061989
      5        1          -0.000131255    0.000037490   -0.000030221
      6        1          -0.000265393    0.000027682   -0.000074941
      7        1           0.001062962   -0.000911607   -0.000664862
      8        1           0.000329907   -0.000260820    0.000300133
      9        1           0.001685602   -0.000681075   -0.000078530
     10        1          -0.002230981    0.000028104    0.004281995
     11        8           0.002666187   -0.000515814   -0.004839973
     12        1           0.000059585    0.000753416    0.000765399
 -------------------------------------------------------------------
 Cartesian Forces:  Max     0.005061895 RMS     0.001835310
 -----------------------------------------------------------------------------------------------
                       Internal Coordinate Forces (Hartree/Bohr or radian)
  Cent   Atom   N1       Length/X         N2         Alpha/Y        N3         Beta/Z          J
 -----------------------------------------------------------------------------------------------
      1  C            0.000681(     1)     -0.000910(    16)      0.000077(    31)
      2  C           -0.004909(     2)      0.005062(    17)     -0.000593(    32)
      3  O            0.001128(     3)     -0.002365(    18)      0.000875(    33)
      4  H            0.000607(     4)      0.000040(    19)     -0.000062(    34)
      5  H           -0.000131(     5)      0.000037(    20)     -0.000030(    35)
      6  H           -0.000265(     6)      0.000028(    21)     -0.000075(    36)
      7  H            0.001063(     7)     -0.000912(    22)     -0.000665(    37)
      8  H            0.000330(     8)     -0.000261(    23)      0.000300(    38)
      9  H            0.001686(     9)     -0.000681(    24)     -0.000079(    39)
         X            0.000008(    10)     -0.000011(    25)      0.000006(    40)
         X           -0.000198(    11)     -0.000027(    26)      0.000245(    41)
     10  H        3   0.000179(    12)     11  -0.000895(    27)     10  -0.000043(    42)     0
         X       12   0.000000(    13)      3   0.001213(    28)     11  -0.000402(    43)     0
     11  O       12   0.004873(    14)     13   0.001213(    29)     11  -0.000597(    44)     0
     12  H       14  -0.001051(    15)     12  -0.000409(    30)     13   0.000041(    45)     0
 -----------------------------------------------------------------------------------------------
 Internal  Forces:  Max     0.005061895 RMS     0.001451944

 GradGradGradGradGradGradGradGradGradGradGradGradGradGradGradGradGradGrad
 Berny optimization.
 Search for a local minimum.
 Step number   6 out of a maximum of  100
 All quantities printed in internal units (Hartrees-Bohrs-Radians)
[...]
     9  H    2.639085   1.936451   0.947148   3.624795   2.548585
    10  X    1.794373   1.336527   1.500001   2.620090   1.650787
    11  X    3.458444   2.054393   1.499999   4.163541   3.716066
    12  H    4.090178   3.062595   2.028895   4.950500   4.594541
    13  X    4.771946   3.410204   2.523176   5.524655   5.236655
    14  O    4.959573   3.957129   2.976295   5.786604   5.503306
    15  H    5.094068   4.338790   3.356595   5.952053   5.619117
                    6          7          8          9         10
     6  H    0.000000
     7  H    3.055152   0.000000
     8  H    2.493020   1.747843   0.000000
     9  H    2.996139   2.309779   2.790406   0.000000
    10  X    2.537169   1.458412   2.411360   1.226646   0.000000
    11  X    3.987135   1.959753   2.444821   1.774000   2.121320
    12  H    3.930328   3.773304   2.937210   2.689805   3.528896
    13  X    4.911306   3.721151   3.261523   3.079779   3.834463
    14  O    4.701839   4.661551   3.690952   3.607537   4.476296
    15  H    4.643099   5.177932   4.104028   3.932840   4.817371
                   11         12         13         14         15
    11  X    0.000000
    12  H    2.523175   0.000000
    13  X    2.028895   1.500000   0.000000
    14  O    3.332916   0.947400   1.774138   0.000000
    15  H    4.027071   1.508660   2.688239   0.947400   0.000000
 Symmetry turned off by external request.
 Stoichiometry    C2H8O2
 Framework group  C1[X(C2H8O2)]
 Deg. of freedom    30
 Full point group                 C1      NOp   1
 Rotational constants (GHZ):     17.0827862      2.1097933      2.0455061
 Standard basis: 6-31G(d) (6D, 7F)
 Integral buffers will be    131072 words long.
 Raffenetti 1 integral format.
 Two-electron integral symmetry is turned off.
    76 basis functions,   144 primitive gaussians,    76 cartesian basis functions
    18 alpha electrons       18 beta electrons
       nuclear repulsion energy       128.1515374915 Hartrees.
 NAtoms=   12 NActive=   12 NUniq=   12 SFac= 7.50D-01 NAtFMM=   80 NAOKFM=F Big=F
 One-electron integrals computed using PRISM.
 NBasis=    76 RedAO= T  NBF=    76
 NBsUse=    76 1.00D-06 NBFU=    76
 Initial guess read from the read-write file.
 B after Tr=     0.000000    0.000000    0.000000
         Rot=    1.000000    0.000000    0.000000    0.000000 Ang=   0.00 deg.
 Requested convergence on RMS density matrix=1.00D-08 within 128 cycles.
 Requested convergence on MAX density matrix=1.00D-06.
 Requested convergence on             energy=1.00D-06.
 No special actions if energy rises.
 Keep R1 ints in memory in canonical form, NReq=5139081.
 SCF Done:  E(RHF) =  -230.094425897     A.U. after    8 cycles
             Convg  =    0.6337D-08             -V/T =  2.0015
 Calling FoFJK, ICntrl=      2127 FMM=F ISym2X=0 I1Cent= 0 IOpClX= 0 NMat=1 NMatS=1 NMatT=0.
 -------------------------------------------------------------------
 Center     Atomic                   Forces (Hartrees/Bohr)
 Number     Number              X              Y              Z
 -------------------------------------------------------------------
      1        6           0.000669889   -0.000892940    0.000084659
      2        6          -0.004833793    0.004985827   -0.000558094
      3        8           0.000510326   -0.002597254    0.000750823
      4        1           0.000600140    0.000038239   -0.000062733
      5        1          -0.000128279    0.000039081   -0.000037086
      6        1          -0.000267167    0.000019774   -0.000074701
      7        1           0.001047101   -0.000897669   -0.000665574
      8        1           0.000322744   -0.000241599    0.000297874
      9        1           0.001688778   -0.000687741   -0.000095486
     10        1          -0.002245963   -0.000004350    0.004326805
     11        8           0.002543955   -0.000461979   -0.004768121
     12        1           0.000092270    0.000700612    0.000801633
 -------------------------------------------------------------------
 Cartesian Forces:  Max     0.004985827 RMS     0.001811071
 -----------------------------------------------------------------------------------------------
                       Internal Coordinate Forces (Hartree/Bohr or radian)
  Cent   Atom   N1       Length/X         N2         Alpha/Y        N3         Beta/Z          J
 -----------------------------------------------------------------------------------------------
      1  C            0.000670(     1)     -0.000893(    16)      0.000085(    31)
      2  C           -0.004834(     2)      0.004986(    17)     -0.000558(    32)
      3  O            0.001119(     3)     -0.002363(    18)      0.000879(    33)
      4  H            0.000600(     4)      0.000038(    19)     -0.000063(    34)
      5  H           -0.000128(     5)      0.000039(    20)     -0.000037(    35)
      6  H           -0.000267(     6)      0.000020(    21)     -0.000075(    36)
      7  H            0.001047(     7)     -0.000898(    22)     -0.000666(    37)
      8  H            0.000323(     8)     -0.000242(    23)      0.000298(    38)
      9  H            0.001689(     9)     -0.000688(    24)     -0.000095(    39)
         X           -0.000011(    10)      0.000016(    25)     -0.000009(    40)
         X           -0.000207(    11)     -0.000016(    26)      0.000240(    41)
     10  H        3  -0.000007(    12)     11  -0.000900(    27)     10   0.000061(    42)     0
         X       12   0.000000(    13)      3   0.001222(    28)     11  -0.000452(    43)     0
     11  O       12   0.004732(    14)     13   0.001222(    29)     11  -0.000609(    44)     0
     12  H       14  -0.001041(    15)     12  -0.000430(    30)     13  -0.000002(    45)     0
 -----------------------------------------------------------------------------------------------
 Internal  Forces:  Max     0.004985827 RMS     0.001429323

 GradGradGradGradGradGradGradGradGradGradGradGradGradGradGradGradGradGrad
 Berny optimization.
 Search for a local minimum.
 Step number   9 out of a maximum of  100
 All quantities printed in internal units (Hartrees-Bohrs-Radians)
 Update second derivatives using D2CorN and points    7    8    9
 DE= -4.81D-07 DEPred=-5.50D-07 R= 8.74D-01
 Trust test= 8.74D-01 RLast= 1.78D-02 DXMaxT set to 8.49D-01
 The second derivative matrix:
                          roh       phi
           roh          0.01314
           phi         -0.00214   0.00218
     Eigenvalues ---    0.00177   0.01355
 RFO step:  Lambda= 0.00000000D+00 EMin= 1.77235529D-03
 Quartic linear search produced a step of -0.07809.
 Variable       Old X    -DE/DX   Delta X   Delta X   Delta X     New X
                                 (Linear)    (Quad)   (Total)
   roh        3.83406  -0.00001  -0.00078   0.00002  -0.00075   3.83330
   phi        2.97540   0.00000  -0.00116  -0.00022  -0.00138   2.97402
         Item               Value     Threshold  Converged?
 Maximum Force            0.000007     0.000450     YES
 RMS     Force            0.000005     0.000300     YES
 Maximum Displacement     0.001376     0.001800     YES
 RMS     Displacement     0.001109     0.001200     YES
 Predicted change in Energy=-3.503050D-09
 Optimization completed.
    -- Stationary point found.
                       ----------------------------
                       !   Optimized Parameters   !
                       ! (Angstroms and Degrees)  !
 ----------------------                            ----------------------
 !      Name          Value   Derivative information (Atomic Units)     !
 ------------------------------------------------------------------------
 !       roh         2.0289   -DE/DX =    0.0                           !
 !       phi       170.4777   -DE/DX =    0.0                           !
 ------------------------------------------------------------------------
 GradGradGradGradGradGradGradGradGradGradGradGradGradGradGradGradGradGrad

 ---------------------------------------------------------------------------------------------------
                            Z-MATRIX (ANGSTROMS AND DEGREES)
   CD    Cent   Atom    N1       Length/X        N2       Alpha/Y        N3        Beta/Z          J
 ---------------------------------------------------------------------------------------------------
      1      1  C        0  -1.209050         -0.236510         -0.019180
      2      2  C        0   0.089910          0.552930          0.044910
      3      3  O        0   1.222000         -0.262490         -0.110010
      4      4  H        0  -2.067380          0.423870          0.062070
      5      5  H        0  -1.267690         -0.957740          0.792470
      6      6  H        0  -1.276370         -0.778020         -0.956280
      7      7  H        0   0.145550          1.112980          0.976650
      8      8  H        0   0.131480          1.270430         -0.764030
      9      9  H        0   1.273180         -0.870090          0.614760
     10         X        0   0.245700         -0.341150          1.026060
     11         X        0   2.041350          0.728250          0.662710
     12     10  H        3   2.028895(    11)     11   90.000(    24)     10  180.000(    36)      0
     13         X       12   1.500000(    12)      3   90.000(    25)     11    0.000(    37)      0
     14     11  O       12   0.947400(    13)     13   90.000(    26)     11  180.000(    38)      0
     15     12  H       14   0.947400(    14)     12  105.540(    27)     13  170.478(    39)      0
 ---------------------------------------------------------------------------------------------------
                         Z-Matrix orientation:                         
 ---------------------------------------------------------------------
 Center     Atomic      Atomic             Coordinates (Angstroms)
 Number     Number       Type             X           Y           Z
 ---------------------------------------------------------------------
      1          6           0       -1.209050   -0.236510   -0.019180
      2          6           0        0.089910    0.552930    0.044910
      3          8           0        1.222000   -0.262490   -0.110010
      4          1           0       -2.067380    0.423870    0.062070
      5          1           0       -1.267690   -0.957740    0.792470
      6          1           0       -1.276370   -0.778020   -0.956280
      7          1           0        0.145550    1.112980    0.976650
      8          1           0        0.131480    1.270430   -0.764030
      9          1           0        1.273180   -0.870090    0.614760
     10         -1           0        0.245700   -0.341150    1.026060
     11         -1           0        2.041350    0.728250    0.662710
     12          1           0        2.542539   -0.156094   -1.646653
     13         -1           0        3.361890    0.834647   -0.873932
     14          8           0        3.159170   -0.106412   -2.364194
     15          1           0        2.912268   -0.800772   -2.959567
 ---------------------------------------------------------------------
                    Distance matrix (angstroms):
                    1          2          3          4          5
     1  C    0.000000
     2  C    1.521388   0.000000
     3  O    2.432885   1.403758   0.000000
     4  H    1.086017   2.161215   3.364628   0.000000
     5  H    1.087376   2.164266   2.737955   1.755515   0.000000
     6  H    1.084399   2.154189   2.687712   1.762746   1.757982
     7  H    2.155862   1.088527   2.057059   2.491664   2.513772
     8  H    2.150044   1.082090   1.991688   2.496816   3.056977
     9  H    2.639085   1.936451   0.947148   3.624795   2.548585
    10  X    1.794373   1.336527   1.500001   2.620090   1.650787
    11  X    3.458444   2.054393   1.499999   4.163541   3.716066
    12  H    4.090178   3.062595   2.028895   4.950500   4.594541
    13  X    4.771946   3.410204   2.523176   5.524655   5.236655
    14  O    4.959573   3.957129   2.976295   5.786604   5.503306
    15  H    5.094068   4.338790   3.356595   5.952053   5.619117
                    6          7          8          9         10
     6  H    0.000000
     7  H    3.055152   0.000000
     8  H    2.493020   1.747843   0.000000
     9  H    2.996139   2.309779   2.790406   0.000000
    10  X    2.537169   1.458412   2.411360   1.226646   0.000000
    11  X    3.987135   1.959753   2.444821   1.774000   2.121320
    12  H    3.930328   3.773304   2.937210   2.689805   3.528896
    13  X    4.911306   3.721151   3.261523   3.079779   3.834463
    14  O    4.701839   4.661551   3.690952   3.607537   4.476296
    15  H    4.643099   5.177932   4.104028   3.932840   4.817371
                   11         12         13         14         15
    11  X    0.000000
    12  H    2.523175   0.000000
    13  X    2.028895   1.500000   0.000000
    14  O    3.332916   0.947400   1.774138   0.000000
    15  H    4.027071   1.508660   2.688239   0.947400   0.000000
 Symmetry turned off by external request.
 Stoichiometry    C2H8O2
 Framework group  C1[X(C2H8O2)]
 Deg. of freedom    30
 Full point group                 C1      NOp   1
 Rotational constants (GHZ):     17.0827862      2.1097933      2.0455061

 **********************************************************************

            Population analysis using the SCF density.

 **********************************************************************

 Alpha  occ. eigenvalues --  -20.57865 -20.52107 -11.28480 -11.22605  -1.38467
 Alpha  occ. eigenvalues --   -1.31191  -1.02549  -0.86560  -0.71355  -0.68264
 Alpha  occ. eigenvalues --   -0.63974  -0.62154  -0.56314  -0.54451  -0.53228
 Alpha  occ. eigenvalues --   -0.49294  -0.46503  -0.45631
 Alpha virt. eigenvalues --    0.20402   0.25627   0.26263   0.28844   0.30097
 Alpha virt. eigenvalues --    0.31047   0.33137   0.38415   0.41077   0.44584
 Alpha virt. eigenvalues --    0.71739   0.73795   0.77800   0.80185   0.88735
 Alpha virt. eigenvalues --    0.90810   1.06153   1.07049   1.13973   1.14816
 Alpha virt. eigenvalues --    1.16397   1.17189   1.18835   1.20131   1.20881
 Alpha virt. eigenvalues --    1.21492   1.23349   1.28269   1.33656   1.42480
 Alpha virt. eigenvalues --    1.43674   1.59256   1.67400   1.71999   1.80605
 Alpha virt. eigenvalues --    1.94186   2.02210   2.05541   2.06285   2.09170
 Alpha virt. eigenvalues --    2.09893   2.21212   2.26631   2.43028   2.45325
 Alpha virt. eigenvalues --    2.54875   2.62443   2.69703   2.72746   2.75400
 Alpha virt. eigenvalues --    2.87050   2.98626   3.02655   3.18070   4.08825
 Alpha virt. eigenvalues --    4.29732   4.60074   4.81597
          Condensed to atoms (all electrons):
              1          2          3          4          5          6
     1  C    5.159958   0.346359  -0.051959   0.377857   0.386614   0.388021
     2  C    0.346359   4.762205   0.203357  -0.032449  -0.035922  -0.035002
     3  O   -0.051959   0.203357   8.395701   0.003169  -0.000615   0.001887
     4  H    0.377857  -0.032449   0.003169   0.532925  -0.025845  -0.023162
     5  H    0.386614  -0.035922  -0.000615  -0.025845   0.548922  -0.029417
     6  H    0.388021  -0.035002   0.001887  -0.023162  -0.029417   0.520538
     7  H   -0.053976   0.403798  -0.037384   0.000967  -0.004262   0.004636
     8  H   -0.044697   0.410174  -0.038229  -0.000814   0.004181  -0.004299
     9  H   -0.003266  -0.024218   0.260895  -0.000056   0.003278  -0.000376
    10  H    0.000155  -0.001203   0.021679  -0.000004  -0.000008   0.000036
    11  O   -0.000013   0.000203  -0.006588   0.000000   0.000000  -0.000002
    12  H   -0.000001   0.000002   0.000314   0.000000   0.000000   0.000002
              7          8          9         10         11         12
     1  C   -0.053976  -0.044697  -0.003266   0.000155  -0.000013  -0.000001
     2  C    0.403798   0.410174  -0.024218  -0.001203   0.000203   0.000002
     3  O   -0.037384  -0.038229   0.260895   0.021679  -0.006588   0.000314
     4  H    0.000967  -0.000814  -0.000056  -0.000004   0.000000   0.000000
     5  H   -0.004262   0.004181   0.003278  -0.000008   0.000000   0.000000
     6  H    0.004636  -0.004299  -0.000376   0.000036  -0.000002   0.000002
     7  H    0.576672  -0.036533  -0.004597   0.000169  -0.000012   0.000001
     8  H   -0.036533   0.524123   0.005658  -0.000778   0.000430  -0.000007
     9  H   -0.004597   0.005658   0.317765  -0.000821   0.000318  -0.000011
    10  H    0.000169  -0.000778  -0.000821   0.254579   0.260382  -0.016963
    11  O   -0.000012   0.000430   0.000318   0.260382   8.401054   0.266731
    12  H    0.000001  -0.000007  -0.000011  -0.016963   0.266731   0.329985
 Mulliken atomic charges:
              1
     1  C   -0.505052
     2  C    0.002696
     3  O   -0.752228
     4  H    0.167410
     5  H    0.153073
     6  H    0.177136
     7  H    0.150522
     8  H    0.180792
     9  H    0.445430
    10  H    0.482777
    11  O   -0.922504
    12  H    0.419948
 Sum of Mulliken atomic charges =   0.00000
 Mulliken charges with hydrogens summed into heavy atoms:
              1
     1  C   -0.007433
     2  C    0.334009
     3  O   -0.306798
    11  O   -0.019778
 Sum of Mulliken charges with hydrogens summed into heavy atoms =   0.00000
 Electronic spatial extent (au):  <R**2>=            757.1039
 Charge=              0.0000 electrons
 Dipole moment (field-independent basis, Debye):
    X=             -3.3229    Y=             -1.4600    Z=              2.0087  Tot=              4.1483
 Quadrupole moment (field-independent basis, Debye-Ang):
   XX=            -40.0215   YY=            -23.9984   ZZ=            -25.9853
   XY=             -4.7895   XZ=              7.2017   YZ=              2.7417
 Traceless Quadrupole moment (field-independent basis, Debye-Ang):
   XX=            -10.0198   YY=              6.0033   ZZ=              4.0164
   XY=             -4.7895   XZ=              7.2017   YZ=              2.7417
 Octapole moment (field-independent basis, Debye-Ang**2):
  XXX=           -109.9808  YYY=              0.1664  ZZZ=             42.7891  XYY=            -14.7227
  XXY=            -10.0965  XXZ=             44.0158  XZZ=            -26.0664  YZZ=            -13.1159
  YYZ=             13.7147  XYZ=              9.8703
 Hexadecapole moment (field-independent basis, Debye-Ang**3):
 XXXX=           -750.2303 YYYY=            -58.8937 ZZZZ=           -226.0318 XXXY=            -22.8515
 XXXZ=            259.4307 YYYX=              2.2922 YYYZ=             -6.9270 ZZZX=            147.4078
 ZZZY=             31.6284 XXYY=            -91.2531 XXZZ=           -178.9312 YYZZ=            -42.3724
 XXYZ=             27.5355 YYXZ=             41.8740 ZZXY=            -34.7820
 N-N= 1.281515374915D+02 E-N=-7.984269667543D+02  KE= 2.297548744620D+02
 1\1\GINC-BLOGIN2\FOpt\RHF\6-31G(d)\C2H8O2\RUPAKHETIC\23-Jun-2017\1\\#H
 F/6-31G* nosymm SCF=Tight opt=(Z-MATRIX,MaxCycle=200)\\Mol-Water Dimer
 \\0,1\C,0,-1.20905,-0.23651,-0.01918\C,0,0.08991,0.55293,0.04491\O,0,1
 .222,-0.26249,-0.11001\H,0,-2.06738,0.42387,0.06207\H,0,-1.26769,-0.95
 774,0.79247\H,0,-1.27637,-0.77802,-0.95628\H,0,0.14555,1.11298,0.97665
 \H,0,0.13148,1.27043,-0.76403\H,0,1.27318,-0.87009,0.61476\X,0,0.2457,
 -0.34115,1.02606\X,0,2.04135,0.72825,0.66271\H,3,roh,11,90.,10,180.,0\
 X,12,1.5,3,90.,11,0.,0\O,12,0.9474,13,90.,11,180.,0\H,14,0.9474,12,105
 .5395,13,phi,0\\roh=2.02889497\phi=170.4777471\\Version=EM64L-G09RevA.
 02\HF=-230.0944259\RMSD=6.337e-09\RMSF=1.811e-03\Dipole=-1.3073303,-0.
 5744059,0.7902901\Quadrupole=-7.4494635,4.4633398,2.9861237,-3.5609079
 ,5.3542665,2.0383732\PG=C01 [X(C2H8O2)]\\@


 DEPRESSION IS WAITING FOR YOUR SHIP TO COME IN,
 AND FINDING OUT IT'S THE TITANIC.
 Job cpu time:  0 days  0 hours  1 minutes 45.5 seconds.
 File lengths (MBytes):  RWF=     67 Int=      0 D2E=      0 Chk=      2 Scr=      2
 Normal termination of Gaussian 09 at Fri Jun 23 12:09:12 2017.
