 Entering Gaussian System, Link 0=/homes/huanglei/prog/g09/g09
 Initial command:
 /homes/huanglei/prog/g09/l1.exe /scratch/1695100.bmgt1.lcrc.anl.gov/0/Gau-38162.inp -scrdir=/scratch/1695100.bmgt1.lcrc.anl.gov/0/
 Entering Link 1 = /homes/huanglei/prog/g09/l1.exe PID=     38164.
  
 Copyright (c) 1988,1990,1992,1993,1995,1998,2003,2009, Gaussian, Inc.
                  All Rights Reserved.
  
 This is part of the Gaussian(R) 09 program.  It is based on
 the Gaussian(R) 03 system (copyright 2003, Gaussian, Inc.),
 the Gaussian(R) 98 system (copyright 1998, Gaussian, Inc.),
 the Gaussian(R) 94 system (copyright 1995, Gaussian, Inc.),
 the Gaussian 92(TM) system (copyright 1992, Gaussian, Inc.),
 the Gaussian 90(TM) system (copyright 1990, Gaussian, Inc.),
 the Gaussian 88(TM) system (copyright 1988, Gaussian, Inc.),
 the Gaussian 86(TM) system (copyright 1986, Carnegie Mellon
 University), and the Gaussian 82(TM) system (copyright 1983,
 Carnegie Mellon University). Gaussian is a federally registered
 trademark of Gaussian, Inc.
  
 This software contains proprietary and confidential information,
 including trade secrets, belonging to Gaussian, Inc.
  
 This software is provided under written license and may be
 used, copied, transmitted, or stored only in accord with that
 written license.
  
 The following legend is applicable only to US Government
 contracts under FAR:
  
                    RESTRICTED RIGHTS LEGEND
  
 Use, reproduction and disclosure by the US Government is
 subject to restrictions as set forth in subparagraphs (a)
 and (c) of the Commercial Computer Software - Restricted
 Rights clause in FAR 52.227-19.
  
 Gaussian, Inc.
 340 Quinnipiac St., Bldg. 40, Wallingford CT 06492
  
  
 ---------------------------------------------------------------
 Warning -- This program may not be used in any manner that
 competes with the business of Gaussian, Inc. or will provide
 assistance to any competitor of Gaussian, Inc.  The licensee
 of this program is prohibited from giving any competitor of
 Gaussian, Inc. access to this program.  By using this program,
 the user acknowledges that Gaussian, Inc. is engaged in the
 business of creating and licensing software in the field of
 computational chemistry and represents and warrants to the
 licensee that it is not a competitor of Gaussian, Inc. and that
 it will not use this program in any manner prohibited above.
 ---------------------------------------------------------------
  

 Cite this work as:
 Gaussian 09, Revision A.02,
 M. J. Frisch, G. W. Trucks, H. B. Schlegel, G. E. Scuseria, 
 M. A. Robb, J. R. Cheeseman, G. Scalmani, V. Barone, B. Mennucci, 
 G. A. Petersson, H. Nakatsuji, M. Caricato, X. Li, H. P. Hratchian, 
 A. F. Izmaylov, J. Bloino, G. Zheng, J. L. Sonnenberg, M. Hada, 
 M. Ehara, K. Toyota, R. Fukuda, J. Hasegawa, M. Ishida, T. Nakajima, 
 Y. Honda, O. Kitao, H. Nakai, T. Vreven, J. A. Montgomery, Jr., 
 J. E. Peralta, F. Ogliaro, M. Bearpark, J. J. Heyd, E. Brothers, 
 K. N. Kudin, V. N. Staroverov, R. Kobayashi, J. Normand, 
 K. Raghavachari, A. Rendell, J. C. Burant, S. S. Iyengar, J. Tomasi, 
 M. Cossi, N. Rega, J. M. Millam, M. Klene, J. E. Knox, J. B. Cross, 
 V. Bakken, C. Adamo, J. Jaramillo, R. Gomperts, R. E. Stratmann, 
 O. Yazyev, A. J. Austin, R. Cammi, C. Pomelli, J. W. Ochterski, 
 R. L. Martin, K. Morokuma, V. G. Zakrzewski, G. A. Voth, 
 P. Salvador, J. J. Dannenberg, S. Dapprich, A. D. Daniels, 
 O. Farkas, J. B. Foresman, J. V. Ortiz, J. Cioslowski, 
 and D. J. Fox, Gaussian, Inc., Wallingford CT, 2009.
 
 ******************************************
 Gaussian 09:  EM64L-G09RevA.02 11-Jun-2009
                22-Aug-2017 
 ******************************************
 %mem=1GB
 %nproc=3
 Will use up to    3 processors via shared memory.
 ----------------------------------
 #HF/6-31G* nosymm opt=ModRedundant
 ----------------------------------
 1/18=120,19=15,38=1/1,3;
 2/9=110,12=2,15=1,17=6,18=5,40=1/2;
 3/5=1,6=6,7=1,11=9,16=1,25=1,30=1,71=1/1,2,3;
 4//1;
 5/5=2,38=5/2;
 6/7=2,8=2,9=2,10=2,28=1/1;
 7/30=1/1,2,3,16;
 1/18=20,19=15/3(2);
 2/9=110,15=1/2;
 99//99;
 2/9=110,15=1/2;
 3/5=1,6=6,7=1,11=9,16=1,25=1,30=1,71=1/1,2,3;
 4/5=5,16=3/1;
 5/5=2,38=5/2;
 7/30=1/1,2,3,16;
 1/18=20,19=15/3(-5);
 2/9=110,15=1/2;
 6/7=2,8=2,9=2,10=2,19=2,28=1/1;
 99/9=1/99;
 -----------------
 Mol dihedral scan
 -----------------
 Symbolic Z-matrix:
 Charge =  0 Multiplicity = 1
 C                    -1.20905  -0.23651  -0.01918 
 C                     0.08991   0.55293   0.04491 
 O                     1.222    -0.26249  -0.11001 
 H                    -2.06738   0.42387   0.06207 
 H                    -1.26769  -0.95774   0.79247 
 H                    -1.27637  -0.77802  -0.95628 
 H                     0.14555   1.11298   0.97665 
 H                     0.13148   1.27043  -0.76403 
 H                     2.00277   0.27163  -0.06313 
 
 The following ModRedundant input section has been read:
 D    1    2    3    9 -180.0 B                                                
 D    1    2    3    9 S   8 10.000                                            
 Iteration  1 RMS(Cart)=  0.00000005 RMS(Int)=  0.00000004
 Iteration  1 RMS(Cart)=  0.00000002 RMS(Int)=  0.00000002

 GradGradGradGradGradGradGradGradGradGradGradGradGradGradGradGradGradGrad
 Berny optimization.
 Initialization pass.
                           ----------------------------
                           !    Initial Parameters    !
                           ! (Angstroms and Degrees)  !
 --------------------------                            --------------------------
 ! Name  Definition              Value          Derivative Info.                !
 --------------------------------------------------------------------------------
 ! R1    R(1,2)                  1.5214         estimate D2E/DX2                !
 ! R2    R(1,4)                  1.086          estimate D2E/DX2                !
 ! R3    R(1,5)                  1.0874         estimate D2E/DX2                !
 ! R4    R(1,6)                  1.0844         estimate D2E/DX2                !
 ! R5    R(2,3)                  1.4038         estimate D2E/DX2                !
 ! R6    R(2,7)                  1.0885         estimate D2E/DX2                !
 ! R7    R(2,8)                  1.0821         estimate D2E/DX2                !
 ! R8    R(3,9)                  0.9471         estimate D2E/DX2                !
 ! A1    A(2,1,4)              110.862          estimate D2E/DX2                !
 ! A2    A(2,1,5)              111.0247         estimate D2E/DX2                !
 ! A3    A(2,1,6)              110.3972         estimate D2E/DX2                !
 ! A4    A(4,1,5)              107.7495         estimate D2E/DX2                !
 ! A5    A(4,1,6)              108.6168         estimate D2E/DX2                !
 ! A6    A(5,1,6)              108.0878         estimate D2E/DX2                !
 ! A7    A(1,2,3)              112.4885         estimate D2E/DX2                !
 ! A8    A(1,2,7)              110.284          estimate D2E/DX2                !
 ! A9    A(1,2,8)              110.2044         estimate D2E/DX2                !
 ! A10   A(3,2,7)              110.6163         estimate D2E/DX2                !
 ! A11   A(3,2,8)              105.7643         estimate D2E/DX2                !
 ! A12   A(7,2,8)              107.2643         estimate D2E/DX2                !
 ! A13   A(2,3,9)              109.3762         estimate D2E/DX2                !
 ! D1    D(4,1,2,3)           -177.646          estimate D2E/DX2                !
 ! D2    D(4,1,2,7)             58.3475         estimate D2E/DX2                !
 ! D3    D(4,1,2,8)            -59.8923         estimate D2E/DX2                !
 ! D4    D(5,1,2,3)             62.6188         estimate D2E/DX2                !
 ! D5    D(5,1,2,7)            -61.3877         estimate D2E/DX2                !
 ! D6    D(5,1,2,8)           -179.6276         estimate D2E/DX2                !
 ! D7    D(6,1,2,3)            -57.2351         estimate D2E/DX2                !
 ! D8    D(6,1,2,7)            178.7585         estimate D2E/DX2                !
 ! D9    D(6,1,2,8)             60.5186         estimate D2E/DX2                !
 ! D10   D(1,2,3,9)           -180.0            Scan                            !
 ! D11   D(7,2,3,9)            -56.1779         estimate D2E/DX2                !
 ! D12   D(8,2,3,9)             59.6507         estimate D2E/DX2                !
 --------------------------------------------------------------------------------
 Trust Radius=3.00D-01 FncErr=1.00D-07 GrdErr=1.00D-07
 Number of optimizations in scan=   9
 Number of steps in this run=  43 maximum allowed number of steps= 100.
 GradGradGradGradGradGradGradGradGradGradGradGradGradGradGradGradGradGrad

                          Input orientation:                          
 ---------------------------------------------------------------------
 Center     Atomic      Atomic             Coordinates (Angstroms)
 Number     Number       Type             X           Y           Z
 ---------------------------------------------------------------------
      1          6           0       -1.209050   -0.236510   -0.019180
      2          6           0        0.089910    0.552930    0.044910
      3          8           0        1.222000   -0.262490   -0.110010
      4          1           0       -2.067380    0.423870    0.062070
      5          1           0       -1.267690   -0.957740    0.792470
      6          1           0       -1.276370   -0.778020   -0.956280
      7          1           0        0.145550    1.112980    0.976650
      8          1           0        0.131480    1.270430   -0.764030
      9          1           0        2.002770    0.271630   -0.063130
 ---------------------------------------------------------------------
                    Distance matrix (angstroms):
                    1          2          3          4          5
     1  C    0.000000
     2  C    1.521388   0.000000
     3  O    2.432885   1.403758   0.000000
     4  H    1.086017   2.161215   3.364628   0.000000
     5  H    1.087376   2.164266   2.737955   1.755515   0.000000
     6  H    1.084399   2.154189   2.687712   1.762746   1.757982
     7  H    2.155862   1.088527   2.057059   2.491664   2.513772
     8  H    2.150044   1.082090   1.991688   2.496816   3.056977
     9  H    3.252065   1.936449   0.947145   4.074920   3.597125
                    6          7          8          9
     6  H    0.000000
     7  H    3.055152   0.000000
     8  H    2.493020   1.747843   0.000000
     9  H    3.556999   2.288729   2.233962   0.000000
 Symmetry turned off by external request.
 Stoichiometry    C2H6O
 Framework group  C1[X(C2H6O)]
 Deg. of freedom    21
 Full point group                 C1      NOp   1
 Rotational constants (GHZ):     38.0082080      9.0181110      8.0025535
 Standard basis: 6-31G(d) (6D, 7F)
 Integral buffers will be    131072 words long.
 Raffenetti 1 integral format.
 Two-electron integral symmetry is turned off.
    57 basis functions,   108 primitive gaussians,    57 cartesian basis functions
    13 alpha electrons       13 beta electrons
       nuclear repulsion energy        81.9802121831 Hartrees.
 NAtoms=    9 NActive=    9 NUniq=    9 SFac= 7.50D-01 NAtFMM=   80 NAOKFM=F Big=F
 One-electron integrals computed using PRISM.
 NBasis=    57 RedAO= T  NBF=    57
 NBsUse=    57 1.00D-06 NBFU=    57
 Harris functional with IExCor=  205 diagonalized for initial guess.
 ExpMin= 1.61D-01 ExpMax= 5.48D+03 ExpMxC= 8.25D+02 IAcc=1 IRadAn=         1 AccDes= 0.00D+00
 HarFok:  IExCor=  205 AccDes= 0.00D+00 IRadAn=         1 IDoV= 1
 ScaDFX=  1.000000  1.000000  1.000000  1.000000
 FoFCou: FMM=F IPFlag=           0 FMFlag=      100000 FMFlg1=           0
         NFxFlg=           0 DoJE=T BraDBF=F KetDBF=T FulRan=T
         Omega=  0.000000  0.000000  1.000000  0.000000  0.000000 ICntrl=     500 IOpCl=  0
         NMat0=    1 NMatS0=    1 NMatT0=    0 NMatD0=    1 NMtDS0=    0 NMtDT0=    0
         I1Cent=           4 NGrid=           0.
 Symmetry not used in FoFCou.
 Requested convergence on RMS density matrix=1.00D-08 within 128 cycles.
 Requested convergence on MAX density matrix=1.00D-06.
 Requested convergence on             energy=1.00D-06.
 No special actions if energy rises.
 Keep R1 ints in memory in canonical form, NReq=2215640.
 SCF Done:  E(RHF) =  -154.073829158     A.U. after   11 cycles
             Convg  =    0.9768D-08             -V/T =  2.0013

 **********************************************************************

            Population analysis using the SCF density.

 **********************************************************************

 Alpha  occ. eigenvalues --  -20.55061 -11.27037 -11.21270  -1.35860  -1.01113
 Alpha  occ. eigenvalues --   -0.83825  -0.69895  -0.64513  -0.57109  -0.53878
 Alpha  occ. eigenvalues --   -0.52795  -0.48002  -0.43144
 Alpha virt. eigenvalues --    0.22449   0.26606   0.31083   0.31392   0.32674
 Alpha virt. eigenvalues --    0.34945   0.40880   0.41386   0.73144   0.75208
 Alpha virt. eigenvalues --    0.78361   0.82361   0.90765   0.93335   1.09201
 Alpha virt. eigenvalues --    1.12991   1.15994   1.18403   1.19094   1.20338
 Alpha virt. eigenvalues --    1.25019   1.28852   1.29263   1.44106   1.62227
 Alpha virt. eigenvalues --    1.71048   1.76737   1.92586   2.03854   2.05591
 Alpha virt. eigenvalues --    2.23225   2.26779   2.40635   2.52426   2.56130
 Alpha virt. eigenvalues --    2.68763   2.71698   2.75645   2.87120   2.99819
 Alpha virt. eigenvalues --    3.20710   4.15819   4.60225   4.82801
          Condensed to atoms (all electrons):
              1          2          3          4          5          6
     1  C    5.108882   0.354059  -0.047370   0.384432   0.388148   0.388927
     2  C    0.354059   4.737556   0.212271  -0.034027  -0.034287  -0.035288
     3  O   -0.047370   0.212271   8.395382   0.002290   0.001514   0.001926
     4  H    0.384432  -0.034027   0.002290   0.541174  -0.026881  -0.025404
     5  H    0.388148  -0.034287   0.001514  -0.026881   0.526595  -0.027607
     6  H    0.388927  -0.035288   0.001926  -0.025404  -0.027607   0.522373
     7  H   -0.045038   0.399631  -0.040635  -0.000299  -0.004938   0.004801
     8  H   -0.045298   0.408000  -0.049140  -0.000617   0.004766  -0.005169
     9  H    0.005322  -0.022032   0.263268  -0.000169  -0.000138  -0.000140
              7          8          9
     1  C   -0.045038  -0.045298   0.005322
     2  C    0.399631   0.408000  -0.022032
     3  O   -0.040635  -0.049140   0.263268
     4  H   -0.000299  -0.000617  -0.000169
     5  H   -0.004938   0.004766  -0.000138
     6  H    0.004801  -0.005169  -0.000140
     7  H    0.604787  -0.049870  -0.003611
     8  H   -0.049870   0.605118  -0.003508
     9  H   -0.003611  -0.003508   0.322362
 Mulliken atomic charges:
              1
     1  C   -0.492062
     2  C    0.014119
     3  O   -0.739506
     4  H    0.159502
     5  H    0.172828
     6  H    0.175582
     7  H    0.135171
     8  H    0.135719
     9  H    0.438647
 Sum of Mulliken atomic charges =   0.00000
 Mulliken charges with hydrogens summed into heavy atoms:
              1
     1  C    0.015850
     2  C    0.285009
     3  O   -0.300859
 Sum of Mulliken charges with hydrogens summed into heavy atoms =   0.00000
 Electronic spatial extent (au):  <R**2>=            195.7556
 Charge=              0.0000 electrons
 Dipole moment (field-independent basis, Debye):
    X=              0.0027    Y=              1.7346    Z=              0.2395  Tot=              1.7511
 Quadrupole moment (field-independent basis, Debye-Ang):
   XX=            -17.0580   YY=            -20.1941   ZZ=            -20.1115
   XY=              2.5238   XZ=              0.1932   YZ=             -0.1042
 Traceless Quadrupole moment (field-independent basis, Debye-Ang):
   XX=              2.0632   YY=             -1.0729   ZZ=             -0.9903
   XY=              2.5238   XZ=              0.1932   YZ=             -0.1042
 Octapole moment (field-independent basis, Debye-Ang**2):
  XXX=             14.2274  YYY=             -2.9803  ZZZ=              1.2815  XYY=              0.9514
  XXY=              3.4508  XXZ=              0.5485  XZZ=              0.9058  YZZ=             -1.1624
  YYZ=              0.5293  XYZ=             -0.2408
 Hexadecapole moment (field-independent basis, Debye-Ang**3):
 XXXX=           -133.4418 YYYY=            -54.2540 ZZZZ=            -32.4821 XXXY=              0.5484
 XXXZ=              1.0238 YYYX=             -3.9100 YYYZ=             -1.5341 ZZZX=              2.1680
 ZZZY=             -1.0369 XXYY=            -35.0997 XXZZ=            -33.0756 YYZZ=            -13.4109
 XXYZ=             -0.5378 YYXZ=              0.3649 ZZXY=             -0.3680
 N-N= 8.198021218307D+01 E-N=-5.257179229462D+02  KE= 1.538799064320D+02
 Calling FoFJK, ICntrl=      2127 FMM=F ISym2X=0 I1Cent= 0 IOpClX= 0 NMat=1 NMatS=1 NMatT=0.
 -------------------------------------------------------------------
 Center     Atomic                   Forces (Hartrees/Bohr)
 Number     Number              X              Y              Z
 -------------------------------------------------------------------
      1        6           0.006874505   -0.006467255    0.001654169
      2        6           0.005571845    0.011313795   -0.005196200
      3        8          -0.003807757   -0.012925123    0.005711500
      4        1           0.002264245    0.001612687   -0.000656141
      5        1           0.001306663    0.000884225   -0.001367092
      6        1          -0.000206445    0.000066685   -0.000039543
      7        1          -0.001099491   -0.001530375    0.001109783
      8        1          -0.008979960    0.007064984   -0.001304870
      9        1          -0.001923605   -0.000019623    0.000088394
 -------------------------------------------------------------------
 Cartesian Forces:  Max     0.012925123 RMS     0.004888989

 GradGradGradGradGradGradGradGradGradGradGradGradGradGradGradGradGradGrad
 Berny optimization.
 Internal  Forces:  Max     0.019898437 RMS     0.005118285
 Search for a local minimum.
 Step number   1 out of a maximum of   43 on scan point     1 out of     9
 All quantities printed in internal units (Hartrees-Bohrs-Radians)
 Mixed Optimization -- RFO/linear search
 Second derivative matrix not updated -- first step.
     Eigenvalues ---    0.00483   0.04097   0.05629   0.05661   0.05829
     Eigenvalues ---    0.11772   0.12377   0.16000   0.16000   0.16000
     Eigenvalues ---    0.16000   0.22021   0.30233   0.34983   0.35118
     Eigenvalues ---    0.35277   0.35468   0.35743   0.45003   0.58333
     Eigenvalues --- 1000.000001000.000001000.000001000.000001000.00000
     Eigenvalues --- 1000.000001000.000001000.000001000.000001000.00000
     Eigenvalues --- 1000.000001000.000001000.00000
 RFO step:  Lambda=-5.02462620D-03 EMin= 4.83030953D-03
 Linear search not attempted -- first point.
 Iteration  1 RMS(Cart)=  0.05421413 RMS(Int)=  0.00184576
 Iteration  2 RMS(Cart)=  0.00179696 RMS(Int)=  0.00104026
 Iteration  3 RMS(Cart)=  0.00000298 RMS(Int)=  0.00104026
 Iteration  4 RMS(Cart)=  0.00000001 RMS(Int)=  0.00104026
 Iteration  1 RMS(Cart)=  0.00028917 RMS(Int)=  0.00025681
 Iteration  2 RMS(Cart)=  0.00014024 RMS(Int)=  0.00028710
 Iteration  3 RMS(Cart)=  0.00006801 RMS(Int)=  0.00031981
 Iteration  4 RMS(Cart)=  0.00003299 RMS(Int)=  0.00033867
 Iteration  5 RMS(Cart)=  0.00001600 RMS(Int)=  0.00034840
 Iteration  6 RMS(Cart)=  0.00000776 RMS(Int)=  0.00035323
 Iteration  7 RMS(Cart)=  0.00000376 RMS(Int)=  0.00035561
 Iteration  8 RMS(Cart)=  0.00000182 RMS(Int)=  0.00035676
 Iteration  9 RMS(Cart)=  0.00000089 RMS(Int)=  0.00035733
 Variable       Old X    -DE/DX   Delta X   Delta X   Delta X     New X
                                 (Linear)    (Quad)   (Total)
    R1        2.87501  -0.00670   0.00000  -0.02180  -0.02180   2.85321
    R2        2.05228  -0.00086   0.00000  -0.00240  -0.00240   2.04988
    R3        2.05484  -0.00168   0.00000  -0.00471  -0.00471   2.05013
    R4        2.04922   0.00001   0.00000   0.00004   0.00004   2.04926
    R5        2.65272   0.00226   0.00000   0.00496   0.00496   2.65768
    R6        2.05702   0.00011   0.00000   0.00030   0.00030   2.05732
    R7        2.04485   0.00532   0.00000   0.01466   0.01466   2.05952
    R8        1.78984  -0.00159   0.00000  -0.00271  -0.00271   1.78714
    A1        1.93491  -0.00361   0.00000  -0.02317  -0.02320   1.91170
    A2        1.93775  -0.00070   0.00000  -0.00265  -0.00267   1.93507
    A3        1.92679   0.00093   0.00000   0.00539   0.00538   1.93217
    A4        1.88058   0.00232   0.00000   0.01459   0.01454   1.89512
    A5        1.89572   0.00101   0.00000   0.00307   0.00305   1.89877
    A6        1.88649   0.00019   0.00000   0.00370   0.00370   1.89019
    A7        1.96329  -0.01990   0.00000  -0.08980  -0.09047   1.87283
    A8        1.92482   0.00340   0.00000  -0.01065  -0.01332   1.91150
    A9        1.92343  -0.00160   0.00000  -0.01399  -0.01115   1.91228
   A10        1.93062   0.00552   0.00000   0.00041  -0.00314   1.92748
   A11        1.84594   0.01482   0.00000   0.11682   0.11671   1.96264
   A12        1.87212  -0.00107   0.00000   0.00601   0.00491   1.87703
   A13        1.90897  -0.00194   0.00000  -0.01174  -0.01174   1.89723
    D1       -3.10051  -0.00305   0.00000  -0.05095  -0.05067   3.13201
    D2        1.01836   0.00165   0.00000   0.02160   0.02100   1.03936
    D3       -1.04532   0.00187   0.00000   0.02940   0.02973  -1.01559
    D4        1.09290  -0.00313   0.00000  -0.05226  -0.05199   1.04091
    D5       -1.07142   0.00157   0.00000   0.02030   0.01968  -1.05174
    D6       -3.13509   0.00179   0.00000   0.02809   0.02841  -3.10668
    D7       -0.99894  -0.00353   0.00000  -0.05872  -0.05843  -1.05738
    D8        3.11992   0.00117   0.00000   0.01384   0.01324   3.13316
    D9        1.05625   0.00139   0.00000   0.02163   0.02197   1.07822
   D10       -3.14159   0.00075   0.00000   0.00000   0.00000   3.14159
   D11       -0.98049  -0.00520   0.00000  -0.07917  -0.07868  -1.05917
   D12        1.04110   0.00449   0.00000  -0.00710  -0.00348   1.03762
         Item               Value     Threshold  Converged?
 Maximum Force            0.019885     0.000450     NO 
 RMS     Force            0.005194     0.000300     NO 
 Maximum Displacement     0.139120     0.001800     NO 
 RMS     Displacement     0.054713     0.001200     NO 
 Predicted change in Energy=-2.596545D-03
 GradGradGradGradGradGradGradGradGradGradGradGradGradGradGradGradGradGrad

                          Input orientation:                          
 ---------------------------------------------------------------------
 Center     Atomic      Atomic             Coordinates (Angstroms)
 Number     Number       Type             X           Y           Z
 ---------------------------------------------------------------------
      1          6           0       -1.177276   -0.235160   -0.023385
      2          6           0        0.086360    0.589641    0.027452
      3          8           0        1.170784   -0.299253   -0.081205
      4          1           0       -2.039655    0.416533    0.067605
      5          1           0       -1.201394   -0.955719    0.787286
      6          1           0       -1.245062   -0.775363   -0.961229
      7          1           0        0.130591    1.129610    0.971758
      8          1           0        0.072211    1.328780   -0.773326
      9          1           0        1.974661    0.198011   -0.051485
 ---------------------------------------------------------------------
                    Distance matrix (angstroms):
                    1          2          3          4          5
     1  C    0.000000
     2  C    1.509854   0.000000
     3  O    2.349646   1.406383   0.000000
     4  H    1.084748   2.133428   3.292629   0.000000
     5  H    1.084884   2.150301   2.610067   1.761731   0.000000
     6  H    1.084419   2.147885   2.614849   1.763658   1.758335
     7  H    2.136217   1.088686   2.057275   2.456815   2.481292
     8  H    2.137648   1.089850   2.082399   2.449355   3.045737
     9  H    3.181687   1.930100   0.945713   4.022023   3.481659
                    6          7          8          9
     6  H    0.000000
     7  H    3.042660   0.000000
     8  H    2.489565   1.757384   0.000000
     9  H    3.484495   2.305536   2.327877   0.000000
 Symmetry turned off by external request.
 Stoichiometry    C2H6O
 Framework group  C1[X(C2H6O)]
 Deg. of freedom    21
 Full point group                 C1      NOp   1
 Rotational constants (GHZ):     35.4782819      9.5886650      8.3226854
 Standard basis: 6-31G(d) (6D, 7F)
 Integral buffers will be    131072 words long.
 Raffenetti 1 integral format.
 Two-electron integral symmetry is turned off.
    57 basis functions,   108 primitive gaussians,    57 cartesian basis functions
    13 alpha electrons       13 beta electrons
       nuclear repulsion energy        82.5509655745 Hartrees.
 NAtoms=    9 NActive=    9 NUniq=    9 SFac= 7.50D-01 NAtFMM=   80 NAOKFM=F Big=F
 One-electron integrals computed using PRISM.
 NBasis=    57 RedAO= T  NBF=    57
 NBsUse=    57 1.00D-06 NBFU=    57
 Initial guess read from the read-write file.
 B after Tr=     0.000000    0.000000    0.000000
         Rot=    1.000000    0.000000    0.000000    0.000000 Ang=   0.00 deg.
 Harris functional with IExCor=  205 diagonalized for initial guess.
 ExpMin= 1.61D-01 ExpMax= 5.48D+03 ExpMxC= 8.25D+02 IAcc=1 IRadAn=         1 AccDes= 0.00D+00
 HarFok:  IExCor=  205 AccDes= 0.00D+00 IRadAn=         1 IDoV= 1
 ScaDFX=  1.000000  1.000000  1.000000  1.000000
 FoFCou: FMM=F IPFlag=           0 FMFlag=      100000 FMFlg1=           0
         NFxFlg=           0 DoJE=T BraDBF=F KetDBF=T FulRan=T
         Omega=  0.000000  0.000000  1.000000  0.000000  0.000000 ICntrl=     500 IOpCl=  0
         NMat0=    1 NMatS0=    1 NMatT0=    0 NMatD0=    1 NMtDS0=    0 NMtDT0=    0
         I1Cent=           4 NGrid=           0.
 Symmetry not used in FoFCou.
 Requested convergence on RMS density matrix=1.00D-08 within 128 cycles.
 Requested convergence on MAX density matrix=1.00D-06.
 Requested convergence on             energy=1.00D-06.
 No special actions if energy rises.
 Keep R1 ints in memory in canonical form, NReq=2215640.
 SCF Done:  E(RHF) =  -154.075437854     A.U. after   11 cycles
             Convg  =    0.3111D-08             -V/T =  2.0011
 Calling FoFJK, ICntrl=      2127 FMM=F ISym2X=0 I1Cent= 0 IOpClX= 0 NMat=1 NMatS=1 NMatT=0.
 -------------------------------------------------------------------
 Center     Atomic                   Forces (Hartrees/Bohr)
 Number     Number              X              Y              Z
 -------------------------------------------------------------------
      1        6          -0.004645834    0.000401636    0.000226609
      2        6          -0.001194757   -0.004287684    0.003508589
      3        8          -0.000135132    0.006191007   -0.002154456
      4        1          -0.002229874   -0.000973434   -0.000303161
      5        1           0.000749392    0.000550443   -0.000335544
      6        1           0.000204734    0.000304361    0.000046614
      7        1           0.000861702    0.000822476   -0.000559842
      8        1           0.003815985   -0.001924816   -0.000276347
      9        1           0.002573784   -0.001083990   -0.000152461
 -------------------------------------------------------------------
 Cartesian Forces:  Max     0.006191007 RMS     0.002210502

 GradGradGradGradGradGradGradGradGradGradGradGradGradGradGradGradGradGrad
 Berny optimization.
 Using GEDIIS/GDIIS optimizer.
 Internal  Forces:  Max     0.005433764 RMS     0.002064335
 Search for a local minimum.
 Step number   2 out of a maximum of   43 on scan point     1 out of     9
 All quantities printed in internal units (Hartrees-Bohrs-Radians)
 Mixed Optimization -- RFO/linear search
 Update second derivatives using D2CorX and points    1    2
 DE= -1.61D-03 DEPred=-2.60D-03 R= 6.20D-01
 SS=  1.41D+00  RLast= 2.05D-01 DXNew= 5.0454D-01 6.1411D-01
 Trust test= 6.20D-01 RLast= 2.05D-01 DXMaxT set to 5.05D-01
 Use linear search instead of GDIIS.
     Eigenvalues ---    0.00483   0.04716   0.05676   0.05775   0.06084
     Eigenvalues ---    0.11364   0.12572   0.15880   0.16000   0.16000
     Eigenvalues ---    0.16596   0.24521   0.32051   0.34984   0.35077
     Eigenvalues ---    0.35334   0.35468   0.35967   0.45103   0.58462
     Eigenvalues --- 1000.000001000.000001000.000001000.000001000.00000
     Eigenvalues --- 1000.000001000.000001000.000001000.000001000.00000
     Eigenvalues --- 1000.000001000.000001000.00000
 RFO step:  Lambda=-1.11605303D-04 EMin= 4.83056558D-03
 Quartic linear search produced a step of -0.26470.
 Iteration  1 RMS(Cart)=  0.01232283 RMS(Int)=  0.00024489
 Iteration  2 RMS(Cart)=  0.00009130 RMS(Int)=  0.00022421
 Iteration  3 RMS(Cart)=  0.00000001 RMS(Int)=  0.00022421
 Iteration  1 RMS(Cart)=  0.00006569 RMS(Int)=  0.00005901
 Iteration  2 RMS(Cart)=  0.00003198 RMS(Int)=  0.00006597
 Iteration  3 RMS(Cart)=  0.00001557 RMS(Int)=  0.00007352
 Iteration  4 RMS(Cart)=  0.00000758 RMS(Int)=  0.00007789
 Iteration  5 RMS(Cart)=  0.00000369 RMS(Int)=  0.00008015
 Iteration  6 RMS(Cart)=  0.00000180 RMS(Int)=  0.00008128
 Iteration  7 RMS(Cart)=  0.00000087 RMS(Int)=  0.00008184
 Variable       Old X    -DE/DX   Delta X   Delta X   Delta X     New X
                                 (Linear)    (Quad)   (Total)
    R1        2.85321   0.00481   0.00577   0.00529   0.01106   2.86427
    R2        2.04988   0.00116   0.00063   0.00172   0.00235   2.05223
    R3        2.05013  -0.00063   0.00125  -0.00270  -0.00146   2.04868
    R4        2.04926  -0.00020  -0.00001  -0.00041  -0.00042   2.04883
    R5        2.65768  -0.00117  -0.00131  -0.00046  -0.00177   2.65590
    R6        2.05732  -0.00004  -0.00008   0.00000  -0.00008   2.05724
    R7        2.05952  -0.00115  -0.00388   0.00193  -0.00195   2.05756
    R8        1.78714   0.00161   0.00072   0.00124   0.00196   1.78910
    A1        1.91170   0.00349   0.00614   0.01126   0.01743   1.92913
    A2        1.93507  -0.00153   0.00071  -0.00873  -0.00804   1.92703
    A3        1.93217  -0.00083  -0.00142  -0.00356  -0.00501   1.92717
    A4        1.89512  -0.00064  -0.00385   0.00397   0.00015   1.89527
    A5        1.89877  -0.00111  -0.00081  -0.00248  -0.00328   1.89549
    A6        1.89019   0.00059  -0.00098  -0.00038  -0.00142   1.88877
    A7        1.87283   0.00543   0.02395  -0.00845   0.01565   1.88848
    A8        1.91150  -0.00013   0.00352   0.00476   0.00886   1.92037
    A9        1.91228   0.00110   0.00295   0.00301   0.00531   1.91759
   A10        1.92748  -0.00129   0.00083   0.00047   0.00203   1.92951
   A11        1.96264  -0.00512  -0.03089   0.00118  -0.02970   1.93295
   A12        1.87703   0.00005  -0.00130  -0.00070  -0.00181   1.87522
   A13        1.89723   0.00408   0.00311   0.01523   0.01834   1.91557
    D1        3.13201   0.00130   0.01341  -0.00107   0.01229  -3.13888
    D2        1.03936  -0.00027  -0.00556   0.00065  -0.00479   1.03457
    D3       -1.01559  -0.00091  -0.00787  -0.00308  -0.01104  -1.02662
    D4        1.04091   0.00082   0.01376  -0.00775   0.00600   1.04691
    D5       -1.05174  -0.00075  -0.00521  -0.00603  -0.01109  -1.06283
    D6       -3.10668  -0.00139  -0.00752  -0.00975  -0.01734  -3.12402
    D7       -1.05738   0.00164   0.01547   0.00084   0.01625  -1.04113
    D8        3.13316   0.00007  -0.00350   0.00256  -0.00084   3.13233
    D9        1.07822  -0.00057  -0.00581  -0.00117  -0.00709   1.07113
   D10        3.14159  -0.00016   0.00000   0.00000   0.00001  -3.14159
   D11       -1.05917   0.00222   0.02083   0.00093   0.02162  -1.03755
   D12        1.03762  -0.00204   0.00092   0.00116   0.00127   1.03889
         Item               Value     Threshold  Converged?
 Maximum Force            0.005435     0.000450     NO 
 RMS     Force            0.002096     0.000300     NO 
 Maximum Displacement     0.036417     0.001800     NO 
 RMS     Displacement     0.012350     0.001200     NO 
 Predicted change in Energy=-3.024900D-04
 GradGradGradGradGradGradGradGradGradGradGradGradGradGradGradGradGradGrad

                          Input orientation:                          
 ---------------------------------------------------------------------
 Center     Atomic      Atomic             Coordinates (Angstroms)
 Number     Number       Type             X           Y           Z
 ---------------------------------------------------------------------
      1          6           0       -1.187699   -0.233899   -0.022016
      2          6           0        0.085509    0.586608    0.033471
      3          8           0        1.177918   -0.289392   -0.087108
      4          1           0       -2.058926    0.408523    0.065393
      5          1           0       -1.207923   -0.955633    0.786682
      6          1           0       -1.248994   -0.774086   -0.960057
      7          1           0        0.136030    1.133409    0.973471
      8          1           0        0.088501    1.320010   -0.771284
      9          1           0        1.986805    0.201539   -0.055084
 ---------------------------------------------------------------------
                    Distance matrix (angstroms):
                    1          2          3          4          5
     1  C    0.000000
     2  C    1.515707   0.000000
     3  O    2.367163   1.405444   0.000000
     4  H    1.085994   2.152053   3.314740   0.000000
     5  H    1.084113   2.149140   2.626714   1.762210   0.000000
     6  H    1.084195   2.149298   2.624285   1.762413   1.756628
     7  H    2.147739   1.088643   2.057844   2.483525   2.491023
     8  H    2.145862   1.088815   2.060364   2.478363   3.047381
     9  H    3.204399   1.941919   0.946751   4.052813   3.500558
                    6          7          8          9
     6  H    0.000000
     7  H    3.048829   0.000000
     8  H    2.491940   1.755349   0.000000
     9  H    3.498745   2.313369   2.316781   0.000000
 Symmetry turned off by external request.
 Stoichiometry    C2H6O
 Framework group  C1[X(C2H6O)]
 Deg. of freedom    21
 Full point group                 C1      NOp   1
 Rotational constants (GHZ):     35.8875350      9.4585422      8.2446209
 Standard basis: 6-31G(d) (6D, 7F)
 Integral buffers will be    131072 words long.
 Raffenetti 1 integral format.
 Two-electron integral symmetry is turned off.
    57 basis functions,   108 primitive gaussians,    57 cartesian basis functions
    13 alpha electrons       13 beta electrons
       nuclear repulsion energy        82.3766322889 Hartrees.
 NAtoms=    9 NActive=    9 NUniq=    9 SFac= 7.50D-01 NAtFMM=   80 NAOKFM=F Big=F
 One-electron integrals computed using PRISM.
 NBasis=    57 RedAO= T  NBF=    57
 NBsUse=    57 1.00D-06 NBFU=    57
 Initial guess read from the read-write file.
 B after Tr=     0.000000    0.000000    0.000000
         Rot=    1.000000    0.000000    0.000000    0.000000 Ang=   0.00 deg.
 Harris functional with IExCor=  205 diagonalized for initial guess.
 ExpMin= 1.61D-01 ExpMax= 5.48D+03 ExpMxC= 8.25D+02 IAcc=1 IRadAn=         1 AccDes= 0.00D+00
 HarFok:  IExCor=  205 AccDes= 0.00D+00 IRadAn=         1 IDoV= 1
 ScaDFX=  1.000000  1.000000  1.000000  1.000000
 FoFCou: FMM=F IPFlag=           0 FMFlag=      100000 FMFlg1=           0
         NFxFlg=           0 DoJE=T BraDBF=F KetDBF=T FulRan=T
         Omega=  0.000000  0.000000  1.000000  0.000000  0.000000 ICntrl=     500 IOpCl=  0
         NMat0=    1 NMatS0=    1 NMatT0=    0 NMatD0=    1 NMtDS0=    0 NMtDT0=    0
         I1Cent=           4 NGrid=           0.
 Symmetry not used in FoFCou.
 Requested convergence on RMS density matrix=1.00D-08 within 128 cycles.
 Requested convergence on MAX density matrix=1.00D-06.
 Requested convergence on             energy=1.00D-06.
 No special actions if energy rises.
 Keep R1 ints in memory in canonical form, NReq=2215640.
 SCF Done:  E(RHF) =  -154.075739359     A.U. after   10 cycles
             Convg  =    0.3523D-08             -V/T =  2.0012
 Calling FoFJK, ICntrl=      2127 FMM=F ISym2X=0 I1Cent= 0 IOpClX= 0 NMat=1 NMatS=1 NMatT=0.
 -------------------------------------------------------------------
 Center     Atomic                   Forces (Hartrees/Bohr)
 Number     Number              X              Y              Z
 -------------------------------------------------------------------
      1        6          -0.000149146   -0.000078297    0.000180561
      2        6           0.000329302    0.000074393    0.000018730
      3        8          -0.000786931    0.000261485   -0.000182787
      4        1           0.000157863   -0.000142066   -0.000019820
      5        1           0.000114234   -0.000047725    0.000106480
      6        1           0.000162243    0.000092143   -0.000092375
      7        1          -0.000024309   -0.000055115   -0.000080929
      8        1           0.000505600   -0.000229913    0.000051144
      9        1          -0.000308855    0.000125094    0.000018996
 -------------------------------------------------------------------
 Cartesian Forces:  Max     0.000786931 RMS     0.000231304

 GradGradGradGradGradGradGradGradGradGradGradGradGradGradGradGradGradGrad
 Berny optimization.
 Using GEDIIS/GDIIS optimizer.
 Internal  Forces:  Max     0.001078620 RMS     0.000285897
 Search for a local minimum.
 Step number   3 out of a maximum of   43 on scan point     1 out of     9
 All quantities printed in internal units (Hartrees-Bohrs-Radians)
 Mixed Optimization -- En-DIIS/RFO-DIIS
 Update second derivatives using D2CorX and points    1    2    3
 DE= -3.02D-04 DEPred=-3.02D-04 R= 9.97D-01
 SS=  1.41D+00  RLast= 6.05D-02 DXNew= 8.4853D-01 1.8158D-01
 Trust test= 9.97D-01 RLast= 6.05D-02 DXMaxT set to 5.05D-01
 Use linear search instead of GDIIS.
     Eigenvalues ---    0.00482   0.04628   0.05654   0.05707   0.05955
     Eigenvalues ---    0.11557   0.12170   0.15586   0.16000   0.16001
     Eigenvalues ---    0.16658   0.25451   0.32842   0.34982   0.35118
     Eigenvalues ---    0.35462   0.35600   0.36069   0.44974   0.58654
     Eigenvalues --- 1000.000001000.000001000.000001000.000001000.00000
     Eigenvalues --- 1000.000001000.000001000.000001000.000001000.00000
     Eigenvalues --- 1000.000001000.000001000.00000
 RFO step:  Lambda=-1.33938876D-05 EMin= 4.82417171D-03
 Quartic linear search produced a step of  0.00874.
 Iteration  1 RMS(Cart)=  0.00287266 RMS(Int)=  0.00000607
 Iteration  2 RMS(Cart)=  0.00000533 RMS(Int)=  0.00000268
 Iteration  3 RMS(Cart)=  0.00000000 RMS(Int)=  0.00000268
 Iteration  1 RMS(Cart)=  0.00000096 RMS(Int)=  0.00000087
 Variable       Old X    -DE/DX   Delta X   Delta X   Delta X     New X
                                 (Linear)    (Quad)   (Total)
    R1        2.86427  -0.00015   0.00010  -0.00037  -0.00027   2.86400
    R2        2.05223  -0.00021   0.00002  -0.00057  -0.00055   2.05168
    R3        2.04868   0.00011  -0.00001   0.00026   0.00025   2.04892
    R4        2.04883   0.00002   0.00000   0.00006   0.00006   2.04889
    R5        2.65590  -0.00108  -0.00002  -0.00244  -0.00245   2.65345
    R6        2.05724  -0.00010   0.00000  -0.00029  -0.00029   2.05695
    R7        2.05756  -0.00019  -0.00002  -0.00051  -0.00053   2.05704
    R8        1.78910  -0.00020   0.00002  -0.00031  -0.00030   1.78880
    A1        1.92913   0.00011   0.00015   0.00117   0.00133   1.93045
    A2        1.92703  -0.00013  -0.00007  -0.00098  -0.00105   1.92598
    A3        1.92717  -0.00029  -0.00004  -0.00210  -0.00214   1.92503
    A4        1.89527   0.00005   0.00000   0.00081   0.00081   1.89608
    A5        1.89549   0.00008  -0.00003   0.00043   0.00041   1.89589
    A6        1.88877   0.00017  -0.00001   0.00072   0.00071   1.88948
    A7        1.88848  -0.00058   0.00014  -0.00329  -0.00315   1.88532
    A8        1.92037   0.00007   0.00008   0.00097   0.00104   1.92141
    A9        1.91759   0.00057   0.00005   0.00387   0.00391   1.92149
   A10        1.92951   0.00026   0.00002   0.00111   0.00113   1.93064
   A11        1.93295  -0.00022  -0.00026  -0.00364  -0.00389   1.92905
   A12        1.87522  -0.00008  -0.00002   0.00109   0.00107   1.87629
   A13        1.91557  -0.00048   0.00016  -0.00269  -0.00253   1.91304
    D1       -3.13888   0.00010   0.00011  -0.00063  -0.00052  -3.13941
    D2        1.03457   0.00011  -0.00004  -0.00053  -0.00057   1.03400
    D3       -1.02662  -0.00018  -0.00010  -0.00479  -0.00489  -1.03152
    D4        1.04691   0.00005   0.00005  -0.00177  -0.00171   1.04519
    D5       -1.06283   0.00005  -0.00010  -0.00166  -0.00176  -1.06458
    D6       -3.12402  -0.00024  -0.00015  -0.00593  -0.00608  -3.13010
    D7       -1.04113   0.00010   0.00014  -0.00069  -0.00055  -1.04168
    D8        3.13233   0.00010  -0.00001  -0.00059  -0.00060   3.13173
    D9        1.07113  -0.00019  -0.00006  -0.00485  -0.00492   1.06621
   D10       -3.14159   0.00011   0.00000   0.00000   0.00000  -3.14159
   D11       -1.03755  -0.00002   0.00019  -0.00022  -0.00003  -1.03758
   D12        1.03889  -0.00009   0.00001  -0.00047  -0.00046   1.03843
         Item               Value     Threshold  Converged?
 Maximum Force            0.001079     0.000450     NO 
 RMS     Force            0.000289     0.000300     YES
 Maximum Displacement     0.008371     0.001800     NO 
 RMS     Displacement     0.002873     0.001200     NO 
 Predicted change in Energy=-6.725928D-06
 GradGradGradGradGradGradGradGradGradGradGradGradGradGradGradGradGradGrad

                          Input orientation:                          
 ---------------------------------------------------------------------
 Center     Atomic      Atomic             Coordinates (Angstroms)
 Number     Number       Type             X           Y           Z
 ---------------------------------------------------------------------
      1          6           0       -1.187579   -0.233714   -0.021528
      2          6           0        0.084857    0.587734    0.033789
      3          8           0        1.174154   -0.289997   -0.087230
      4          1           0       -2.059918    0.406623    0.066488
      5          1           0       -1.205271   -0.956395    0.786556
      6          1           0       -1.246845   -0.772549   -0.960512
      7          1           0        0.136068    1.134910    0.973357
      8          1           0        0.092931    1.319467   -0.772073
      9          1           0        1.982823    0.201001   -0.055378
 ---------------------------------------------------------------------
                    Distance matrix (angstroms):
                    1          2          3          4          5
     1  C    0.000000
     2  C    1.515562   0.000000
     3  O    2.363317   1.404146   0.000000
     4  H    1.085704   2.152656   3.311817   0.000000
     5  H    1.084243   2.148354   2.620926   1.762594   0.000000
     6  H    1.084226   2.147658   2.618533   1.762459   1.757207
     7  H    2.148249   1.088491   2.057384   2.484989   2.491515
     8  H    2.148346   1.088536   2.056314   2.484195   3.048639
     9  H    3.200246   1.939018   0.946594   4.049801   3.494620
                    6          7          8          9
     6  H    0.000000
     7  H    3.048065   0.000000
     8  H    2.491393   1.755691   0.000000
     9  H    3.492538   2.311058   2.310046   0.000000
 Symmetry turned off by external request.
 Stoichiometry    C2H6O
 Framework group  C1[X(C2H6O)]
 Deg. of freedom    21
 Full point group                 C1      NOp   1
 Rotational constants (GHZ):     35.8332188      9.4865985      8.2634870
 Standard basis: 6-31G(d) (6D, 7F)
 Integral buffers will be    131072 words long.
 Raffenetti 1 integral format.
 Two-electron integral symmetry is turned off.
    57 basis functions,   108 primitive gaussians,    57 cartesian basis functions
    13 alpha electrons       13 beta electrons
       nuclear repulsion energy        82.4305473304 Hartrees.
 NAtoms=    9 NActive=    9 NUniq=    9 SFac= 7.50D-01 NAtFMM=   80 NAOKFM=F Big=F
 One-electron integrals computed using PRISM.
 NBasis=    57 RedAO= T  NBF=    57
 NBsUse=    57 1.00D-06 NBFU=    57
 Initial guess read from the read-write file.
 B after Tr=     0.000000    0.000000    0.000000
         Rot=    1.000000    0.000000    0.000000    0.000000 Ang=   0.00 deg.
 Requested convergence on RMS density matrix=1.00D-08 within 128 cycles.
 Requested convergence on MAX density matrix=1.00D-06.
 Requested convergence on             energy=1.00D-06.
 No special actions if energy rises.
 Keep R1 ints in memory in canonical form, NReq=2215640.
 SCF Done:  E(RHF) =  -154.075744088     A.U. after    9 cycles
             Convg  =    0.2606D-08             -V/T =  2.0012
 Calling FoFJK, ICntrl=      2127 FMM=F ISym2X=0 I1Cent= 0 IOpClX= 0 NMat=1 NMatS=1 NMatT=0.
 -------------------------------------------------------------------
 Center     Atomic                   Forces (Hartrees/Bohr)
 Number     Number              X              Y              Z
 -------------------------------------------------------------------
      1        6          -0.000178832    0.000188212   -0.000051595
      2        6          -0.000056056   -0.000056350   -0.000154723
      3        8           0.000324219   -0.000126451    0.000107502
      4        1          -0.000031829   -0.000065625    0.000015914
      5        1           0.000067851    0.000038144    0.000003284
      6        1           0.000013977   -0.000001589    0.000002950
      7        1          -0.000032993    0.000026971    0.000028325
      8        1          -0.000194172    0.000085357    0.000057791
      9        1           0.000087834   -0.000088669   -0.000009448
 -------------------------------------------------------------------
 Cartesian Forces:  Max     0.000324219 RMS     0.000107402

 GradGradGradGradGradGradGradGradGradGradGradGradGradGradGradGradGradGrad
 Berny optimization.
 Using GEDIIS/GDIIS optimizer.
 Internal  Forces:  Max     0.000445680 RMS     0.000108660
 Search for a local minimum.
 Step number   4 out of a maximum of   43 on scan point     1 out of     9
 All quantities printed in internal units (Hartrees-Bohrs-Radians)
 Mixed Optimization -- En-DIIS/RFO-DIIS
 Swaping is turned off.
 Update second derivatives using D2CorX and points    1    2    3    4
 DE= -4.73D-06 DEPred=-6.73D-06 R= 7.03D-01
 SS=  1.41D+00  RLast= 1.26D-02 DXNew= 8.4853D-01 3.7774D-02
 Trust test= 7.03D-01 RLast= 1.26D-02 DXMaxT set to 5.05D-01
     Eigenvalues ---    0.00476   0.04730   0.05570   0.05689   0.06343
     Eigenvalues ---    0.11552   0.13250   0.14794   0.16000   0.16120
     Eigenvalues ---    0.17075   0.25611   0.32789   0.35001   0.35134
     Eigenvalues ---    0.35458   0.35567   0.36038   0.50363   0.58778
     Eigenvalues --- 1000.000001000.000001000.000001000.000001000.00000
     Eigenvalues --- 1000.000001000.000001000.000001000.000001000.00000
     Eigenvalues --- 1000.000001000.000001000.00000
 En-DIIS/RFO-DIIS IScMMF=        0 using points:     4    3
 RFO step:  Lambda=-7.12160514D-07.
 DIIS coeffs:      0.77110      0.22890
 Iteration  1 RMS(Cart)=  0.00075118 RMS(Int)=  0.00000060
 Iteration  2 RMS(Cart)=  0.00000034 RMS(Int)=  0.00000046
 Iteration  1 RMS(Cart)=  0.00000036 RMS(Int)=  0.00000032
 Variable       Old X    -DE/DX   Delta X   Delta X   Delta X     New X
                                  (DIIS)     (GDIIS)  (Total)
    R1        2.86400   0.00002   0.00006  -0.00004   0.00003   2.86402
    R2        2.05168  -0.00001   0.00013  -0.00018  -0.00006   2.05163
    R3        2.04892  -0.00002  -0.00006   0.00002  -0.00004   2.04888
    R4        2.04889   0.00000  -0.00001   0.00001   0.00000   2.04889
    R5        2.65345   0.00045   0.00056   0.00009   0.00066   2.65411
    R6        2.05695   0.00004   0.00007   0.00000   0.00007   2.05702
    R7        2.05704   0.00001   0.00012  -0.00012   0.00000   2.05704
    R8        1.78880   0.00003   0.00007  -0.00005   0.00002   1.78882
    A1        1.93045   0.00013  -0.00030   0.00107   0.00077   1.93122
    A2        1.92598  -0.00013   0.00024  -0.00103  -0.00079   1.92519
    A3        1.92503  -0.00001   0.00049  -0.00063  -0.00014   1.92489
    A4        1.89608   0.00000  -0.00019   0.00017  -0.00001   1.89607
    A5        1.89589  -0.00003  -0.00009   0.00024   0.00015   1.89604
    A6        1.88948   0.00004  -0.00016   0.00019   0.00003   1.88951
    A7        1.88532   0.00011   0.00072  -0.00033   0.00040   1.88572
    A8        1.92141  -0.00005  -0.00024  -0.00030  -0.00054   1.92087
    A9        1.92149  -0.00016  -0.00089   0.00029  -0.00060   1.92089
   A10        1.93064  -0.00005  -0.00026   0.00004  -0.00021   1.93043
   A11        1.92905   0.00014   0.00089   0.00046   0.00135   1.93041
   A12        1.87629   0.00001  -0.00024  -0.00017  -0.00041   1.87588
   A13        1.91304   0.00022   0.00058   0.00032   0.00090   1.91394
    D1       -3.13941  -0.00008   0.00012  -0.00161  -0.00149  -3.14090
    D2        1.03400  -0.00005   0.00013  -0.00128  -0.00116   1.03285
    D3       -1.03152   0.00007   0.00112  -0.00107   0.00005  -1.03147
    D4        1.04519  -0.00007   0.00039  -0.00185  -0.00146   1.04373
    D5       -1.06458  -0.00005   0.00040  -0.00152  -0.00112  -1.06571
    D6       -3.13010   0.00007   0.00139  -0.00131   0.00008  -3.13002
    D7       -1.04168  -0.00003   0.00013  -0.00103  -0.00090  -1.04258
    D8        3.13173  -0.00001   0.00014  -0.00070  -0.00057   3.13116
    D9        1.06621   0.00011   0.00113  -0.00049   0.00064   1.06685
   D10       -3.14159   0.00000   0.00000   0.00000   0.00000  -3.14159
   D11       -1.03758  -0.00003   0.00001  -0.00055  -0.00054  -1.03812
   D12        1.03843   0.00004   0.00011  -0.00043  -0.00033   1.03810
         Item               Value     Threshold  Converged?
 Maximum Force            0.000446     0.000450     YES
 RMS     Force            0.000110     0.000300     YES
 Maximum Displacement     0.001601     0.001800     YES
 RMS     Displacement     0.000751     0.001200     YES
 Predicted change in Energy=-7.524229D-07
 Optimization completed.
    -- Stationary point found.
                           ----------------------------
                           !   Optimized Parameters   !
                           ! (Angstroms and Degrees)  !
 --------------------------                            --------------------------
 ! Name  Definition              Value          Derivative Info.                !
 --------------------------------------------------------------------------------
 ! R1    R(1,2)                  1.5156         -DE/DX =    0.0                 !
 ! R2    R(1,4)                  1.0857         -DE/DX =    0.0                 !
 ! R3    R(1,5)                  1.0842         -DE/DX =    0.0                 !
 ! R4    R(1,6)                  1.0842         -DE/DX =    0.0                 !
 ! R5    R(2,3)                  1.4041         -DE/DX =    0.0004              !
 ! R6    R(2,7)                  1.0885         -DE/DX =    0.0                 !
 ! R7    R(2,8)                  1.0885         -DE/DX =    0.0                 !
 ! R8    R(3,9)                  0.9466         -DE/DX =    0.0                 !
 ! A1    A(2,1,4)              110.6069         -DE/DX =    0.0001              !
 ! A2    A(2,1,5)              110.3505         -DE/DX =   -0.0001              !
 ! A3    A(2,1,6)              110.2959         -DE/DX =    0.0                 !
 ! A4    A(4,1,5)              108.6376         -DE/DX =    0.0                 !
 ! A5    A(4,1,6)              108.6267         -DE/DX =    0.0                 !
 ! A6    A(5,1,6)              108.2592         -DE/DX =    0.0                 !
 ! A7    A(1,2,3)              108.0211         -DE/DX =    0.0001              !
 ! A8    A(1,2,7)              110.0884         -DE/DX =   -0.0001              !
 ! A9    A(1,2,8)              110.0935         -DE/DX =   -0.0002              !
 ! A10   A(3,2,7)              110.6176         -DE/DX =   -0.0001              !
 ! A11   A(3,2,8)              110.5266         -DE/DX =    0.0001              !
 ! A12   A(7,2,8)              107.5034         -DE/DX =    0.0                 !
 ! A13   A(2,3,9)              109.609          -DE/DX =    0.0002              !
 ! D1    D(4,1,2,3)           -179.8748         -DE/DX =   -0.0001              !
 ! D2    D(4,1,2,7)             59.244          -DE/DX =   -0.0001              !
 ! D3    D(4,1,2,8)            -59.1016         -DE/DX =    0.0001              !
 ! D4    D(5,1,2,3)             59.8851         -DE/DX =   -0.0001              !
 ! D5    D(5,1,2,7)            -60.9961         -DE/DX =    0.0                 !
 ! D6    D(5,1,2,8)           -179.3417         -DE/DX =    0.0001              !
 ! D7    D(6,1,2,3)            -59.6838         -DE/DX =    0.0                 !
 ! D8    D(6,1,2,7)            179.4349         -DE/DX =    0.0                 !
 ! D9    D(6,1,2,8)             61.0894         -DE/DX =    0.0001              !
 ! D10   D(1,2,3,9)           -179.9998         -DE/DX =    0.0                 !
 ! D11   D(7,2,3,9)            -59.449          -DE/DX =    0.0                 !
 ! D12   D(8,2,3,9)             59.4976         -DE/DX =    0.0                 !
 --------------------------------------------------------------------------------
 Iteration  1 RMS(Cart)=  0.02360119 RMS(Int)=  0.02121430
 Iteration  2 RMS(Cart)=  0.00090324 RMS(Int)=  0.02120071
 Iteration  3 RMS(Cart)=  0.00000688 RMS(Int)=  0.02120071
 Iteration  4 RMS(Cart)=  0.00000046 RMS(Int)=  0.02120071
 Iteration  1 RMS(Cart)=  0.01150332 RMS(Int)=  0.01032880
 Iteration  2 RMS(Cart)=  0.00561205 RMS(Int)=  0.01154754
 Iteration  3 RMS(Cart)=  0.00273695 RMS(Int)=  0.01287062
 Iteration  4 RMS(Cart)=  0.00133465 RMS(Int)=  0.01363778
 Iteration  5 RMS(Cart)=  0.00065081 RMS(Int)=  0.01403545
 Iteration  6 RMS(Cart)=  0.00031734 RMS(Int)=  0.01423442
 Iteration  7 RMS(Cart)=  0.00015474 RMS(Int)=  0.01433258
 Iteration  8 RMS(Cart)=  0.00007545 RMS(Int)=  0.01438071
 Iteration  9 RMS(Cart)=  0.00003679 RMS(Int)=  0.01440424
 Iteration 10 RMS(Cart)=  0.00001794 RMS(Int)=  0.01441573
 Iteration 11 RMS(Cart)=  0.00000875 RMS(Int)=  0.01442134
 Iteration 12 RMS(Cart)=  0.00000427 RMS(Int)=  0.01442407
 Iteration 13 RMS(Cart)=  0.00000208 RMS(Int)=  0.01442541
 Iteration 14 RMS(Cart)=  0.00000101 RMS(Int)=  0.01442606
 Iteration 15 RMS(Cart)=  0.00000049 RMS(Int)=  0.01442637
 GradGradGradGradGradGradGradGradGradGradGradGradGradGradGradGradGradGrad

                          Input orientation:                          
 ---------------------------------------------------------------------
 Center     Atomic      Atomic             Coordinates (Angstroms)
 Number     Number       Type             X           Y           Z
 ---------------------------------------------------------------------
      1          6           0       -1.186049   -0.233569   -0.017478
      2          6           0        0.083381    0.594517   -0.013713
      3          8           0        1.172875   -0.283989   -0.131317
      4          1           0       -2.058327    0.402159    0.099727
      5          1           0       -1.169149   -0.951805    0.794610
      6          1           0       -1.277014   -0.777958   -0.950749
      7          1           0        0.100613    1.102680    0.948901
      8          1           0        0.124816    1.357747   -0.788911
      9          1           0        1.980073    0.187299    0.022402
 ---------------------------------------------------------------------
                    Distance matrix (angstroms):
                    1          2          3          4          5
     1  C    0.000000
     2  C    1.515649   0.000000
     3  O    2.362207   1.404493   0.000000
     4  H    1.085705   2.153319   3.311320   0.000000
     5  H    1.084268   2.147867   2.605455   1.762588   0.000000
     6  H    1.084265   2.147650   2.630101   1.762562   1.757309
     7  H    2.091637   1.088647   2.058996   2.423396   2.420126
     8  H    2.201309   1.088654   2.055761   2.543411   3.084788
     9  H    3.194220   1.940250   0.947264   4.044850   3.436781
                    6          7          8          9
     6  H    0.000000
     7  H    3.007212   0.000000
     8  H    2.559796   1.756598   0.000000
     9  H    3.533745   2.286633   2.338836   0.000000
 Symmetry turned off by external request.
 Stoichiometry    C2H6O
 Framework group  C1[X(C2H6O)]
 Deg. of freedom    21
 Full point group                 C1      NOp   1
 Rotational constants (GHZ):     35.7594848      9.4958873      8.2705950
 Standard basis: 6-31G(d) (6D, 7F)
 Integral buffers will be    131072 words long.
 Raffenetti 1 integral format.
 Two-electron integral symmetry is turned off.
    57 basis functions,   108 primitive gaussians,    57 cartesian basis functions
    13 alpha electrons       13 beta electrons
       nuclear repulsion energy        82.4348584504 Hartrees.
 NAtoms=    9 NActive=    9 NUniq=    9 SFac= 7.50D-01 NAtFMM=   80 NAOKFM=F Big=F
 One-electron integrals computed using PRISM.
 NBasis=    57 RedAO= T  NBF=    57
 NBsUse=    57 1.00D-06 NBFU=    57
 Initial guess read from the read-write file.
 B after Tr=     0.000000    0.000000    0.000000
         Rot=    1.000000    0.000000    0.000000    0.000000 Ang=   0.00 deg.
 Harris functional with IExCor=  205 diagonalized for initial guess.
 ExpMin= 1.61D-01 ExpMax= 5.48D+03 ExpMxC= 8.25D+02 IAcc=1 IRadAn=         1 AccDes= 0.00D+00
 HarFok:  IExCor=  205 AccDes= 0.00D+00 IRadAn=         1 IDoV= 1
 ScaDFX=  1.000000  1.000000  1.000000  1.000000
 FoFCou: FMM=F IPFlag=           0 FMFlag=      100000 FMFlg1=           0
         NFxFlg=           0 DoJE=T BraDBF=F KetDBF=T FulRan=T
         Omega=  0.000000  0.000000  1.000000  0.000000  0.000000 ICntrl=     500 IOpCl=  0
         NMat0=    1 NMatS0=    1 NMatT0=    0 NMatD0=    1 NMtDS0=    0 NMtDT0=    0
         I1Cent=           4 NGrid=           0.
 Symmetry not used in FoFCou.
 Requested convergence on RMS density matrix=1.00D-08 within 128 cycles.
 Requested convergence on MAX density matrix=1.00D-06.
 Requested convergence on             energy=1.00D-06.
 No special actions if energy rises.
 Keep R1 ints in memory in canonical form, NReq=2215640.
 SCF Done:  E(RHF) =  -154.074554309     A.U. after   11 cycles
             Convg  =    0.2540D-08             -V/T =  2.0012
 Calling FoFJK, ICntrl=      2127 FMM=F ISym2X=0 I1Cent= 0 IOpClX= 0 NMat=1 NMatS=1 NMatT=0.
 -------------------------------------------------------------------
 Center     Atomic                   Forces (Hartrees/Bohr)
 Number     Number              X              Y              Z
 -------------------------------------------------------------------
      1        6          -0.001222543    0.000892738   -0.010612259
      2        6           0.000501810   -0.001881681    0.014151291
      3        8           0.001077944    0.000476275   -0.000172193
      4        1          -0.000038993   -0.000015833   -0.000269574
      5        1           0.001479257    0.001051753   -0.000074933
      6        1          -0.001523152   -0.001052053   -0.000016092
      7        1           0.005826749    0.003962819   -0.000797874
      8        1          -0.005517803   -0.003112593   -0.001394383
      9        1          -0.000583269   -0.000321424   -0.000813982
 -------------------------------------------------------------------
 Cartesian Forces:  Max     0.014151291 RMS     0.003947148

 GradGradGradGradGradGradGradGradGradGradGradGradGradGradGradGradGradGrad
 Berny optimization.
 Internal  Forces:  Max     0.009518385 RMS     0.003014172
 Search for a local minimum.
 Step number   1 out of a maximum of   43 on scan point     2 out of     9
 All quantities printed in internal units (Hartrees-Bohrs-Radians)
 Mixed Optimization -- RFO/linear search
 Second derivative matrix not updated -- first step.
     Eigenvalues ---    0.00476   0.04754   0.05572   0.05691   0.06306
     Eigenvalues ---    0.11299   0.13248   0.14861   0.16000   0.16120
     Eigenvalues ---    0.17014   0.25269   0.32655   0.35001   0.35135
     Eigenvalues ---    0.35459   0.35573   0.35994   0.50378   0.58777
     Eigenvalues --- 1000.000001000.000001000.000001000.000001000.00000
     Eigenvalues --- 1000.000001000.000001000.000001000.000001000.00000
     Eigenvalues --- 1000.000001000.000001000.00000
 RFO step:  Lambda=-2.31098379D-03 EMin= 4.75585748D-03
 Linear search not attempted -- first point.
 Iteration  1 RMS(Cart)=  0.02977446 RMS(Int)=  0.00103058
 Iteration  2 RMS(Cart)=  0.00083471 RMS(Int)=  0.00059896
 Iteration  3 RMS(Cart)=  0.00000048 RMS(Int)=  0.00059896
 Iteration  1 RMS(Cart)=  0.00000150 RMS(Int)=  0.00000134
 Iteration  2 RMS(Cart)=  0.00000073 RMS(Int)=  0.00000150
 Variable       Old X    -DE/DX   Delta X   Delta X   Delta X     New X
                                 (Linear)    (Quad)   (Total)
    R1        2.86416   0.00064   0.00000   0.00042   0.00042   2.86458
    R2        2.05168  -0.00001   0.00000  -0.00004  -0.00004   2.05164
    R3        2.04897  -0.00073   0.00000  -0.00172  -0.00172   2.04724
    R4        2.04896   0.00067   0.00000   0.00194   0.00194   2.05090
    R5        2.65411   0.00037   0.00000   0.00048   0.00048   2.65459
    R6        2.05724   0.00124   0.00000   0.00348   0.00348   2.06072
    R7        2.05726  -0.00140   0.00000  -0.00354  -0.00354   2.05372
    R8        1.79007  -0.00079   0.00000  -0.00159  -0.00159   1.78848
    A1        1.93127   0.00006   0.00000  -0.00497  -0.00504   1.92623
    A2        1.92517  -0.00292   0.00000  -0.01636  -0.01637   1.90880
    A3        1.92487   0.00297   0.00000   0.02267   0.02270   1.94757
    A4        1.89604   0.00098   0.00000   0.00113   0.00101   1.89705
    A5        1.89600  -0.00105   0.00000  -0.00192  -0.00195   1.89405
    A6        1.88956  -0.00004   0.00000  -0.00057  -0.00047   1.88909
    A7        1.88362   0.00094   0.00000   0.00163   0.00035   1.88397
    A8        1.84469   0.00951   0.00000   0.07658   0.07685   1.92154
    A9        1.99670  -0.00952   0.00000  -0.07379  -0.07357   1.92314
   A10        1.93236  -0.00298   0.00000  -0.00098  -0.00225   1.93011
   A11        1.92770   0.00276   0.00000   0.00098  -0.00042   1.92728
   A12        1.87736  -0.00056   0.00000  -0.00073   0.00084   1.87819
   A13        1.91371   0.00016   0.00000  -0.00347  -0.00347   1.91024
    D1        3.11395   0.00103   0.00000   0.03348   0.03346  -3.13577
    D2        1.04586  -0.00092   0.00000  -0.00605  -0.00682   1.03904
    D3       -1.01613  -0.00121   0.00000  -0.01464  -0.01378  -1.02991
    D4        1.01542   0.00167   0.00000   0.04595   0.04585   1.06126
    D5       -1.05267  -0.00028   0.00000   0.00641   0.00556  -1.04711
    D6       -3.11466  -0.00056   0.00000  -0.00217  -0.00140  -3.11606
    D7       -1.07094   0.00169   0.00000   0.04263   0.04263  -1.02831
    D8       -3.13903  -0.00026   0.00000   0.00310   0.00235  -3.13668
    D9        1.08217  -0.00055   0.00000  -0.00548  -0.00462   1.07755
   D10       -2.96706  -0.00699   0.00000   0.00000   0.00000  -2.96706
   D11       -0.95592   0.00333   0.00000   0.09198   0.09187  -0.86405
   D12        1.12164   0.00249   0.00000   0.09108   0.09121   1.21285
         Item               Value     Threshold  Converged?
 Maximum Force            0.006606     0.000450     NO 
 RMS     Force            0.002528     0.000300     NO 
 Maximum Displacement     0.098698     0.001800     NO 
 RMS     Displacement     0.029733     0.001200     NO 
 Predicted change in Energy=-1.186555D-03
 GradGradGradGradGradGradGradGradGradGradGradGradGradGradGradGradGradGrad

                          Input orientation:                          
 ---------------------------------------------------------------------
 Center     Atomic      Atomic             Coordinates (Angstroms)
 Number     Number       Type             X           Y           Z
 ---------------------------------------------------------------------
      1          6           0       -1.185888   -0.234172   -0.027460
      2          6           0        0.084185    0.592370    0.012675
      3          8           0        1.173808   -0.280769   -0.141157
      4          1           0       -2.056398    0.405216    0.082543
      5          1           0       -1.175116   -0.949103    0.786429
      6          1           0       -1.276317   -0.782268   -0.959804
      7          1           0        0.152842    1.128049    0.960038
      8          1           0        0.075582    1.332075   -0.783474
      9          1           0        1.978523    0.185683    0.033681
 ---------------------------------------------------------------------
                    Distance matrix (angstroms):
                    1          2          3          4          5
     1  C    0.000000
     2  C    1.515873   0.000000
     3  O    2.362893   1.404747   0.000000
     4  H    1.085682   2.149886   3.309811   0.000000
     5  H    1.083355   2.135574   2.612380   1.762468   0.000000
     6  H    1.085289   2.164789   2.631500   1.762139   1.757102
     7  H    2.150116   1.090486   2.059070   2.484598   2.471472
     8  H    2.148486   1.086780   2.054248   2.480805   3.038521
     9  H    3.192728   1.937615   0.946421   4.041184   3.435085
                    6          7          8          9
     6  H    0.000000
     7  H    3.062286   0.000000
     8  H    2.515783   1.757108   0.000000
     9  H    3.538067   2.253731   2.367095   0.000000
 Symmetry turned off by external request.
 Stoichiometry    C2H6O
 Framework group  C1[X(C2H6O)]
 Deg. of freedom    21
 Full point group                 C1      NOp   1
 Rotational constants (GHZ):     35.7335501      9.4908882      8.2676948
 Standard basis: 6-31G(d) (6D, 7F)
 Integral buffers will be    131072 words long.
 Raffenetti 1 integral format.
 Two-electron integral symmetry is turned off.
    57 basis functions,   108 primitive gaussians,    57 cartesian basis functions
    13 alpha electrons       13 beta electrons
       nuclear repulsion energy        82.4224821395 Hartrees.
 NAtoms=    9 NActive=    9 NUniq=    9 SFac= 7.50D-01 NAtFMM=   80 NAOKFM=F Big=F
 One-electron integrals computed using PRISM.
 NBasis=    57 RedAO= T  NBF=    57
 NBsUse=    57 1.00D-06 NBFU=    57
 Initial guess read from the read-write file.
 B after Tr=     0.000000    0.000000    0.000000
         Rot=    1.000000    0.000000    0.000000    0.000000 Ang=   0.00 deg.
 Harris functional with IExCor=  205 diagonalized for initial guess.
 ExpMin= 1.61D-01 ExpMax= 5.48D+03 ExpMxC= 8.25D+02 IAcc=1 IRadAn=         1 AccDes= 0.00D+00
 HarFok:  IExCor=  205 AccDes= 0.00D+00 IRadAn=         1 IDoV= 1
 ScaDFX=  1.000000  1.000000  1.000000  1.000000
 FoFCou: FMM=F IPFlag=           0 FMFlag=      100000 FMFlg1=           0
         NFxFlg=           0 DoJE=T BraDBF=F KetDBF=T FulRan=T
         Omega=  0.000000  0.000000  1.000000  0.000000  0.000000 ICntrl=     500 IOpCl=  0
         NMat0=    1 NMatS0=    1 NMatT0=    0 NMatD0=    1 NMtDS0=    0 NMtDT0=    0
         I1Cent=           4 NGrid=           0.
 Symmetry not used in FoFCou.
 Requested convergence on RMS density matrix=1.00D-08 within 128 cycles.
 Requested convergence on MAX density matrix=1.00D-06.
 Requested convergence on             energy=1.00D-06.
 No special actions if energy rises.
 Keep R1 ints in memory in canonical form, NReq=2215640.
 SCF Done:  E(RHF) =  -154.075513988     A.U. after   10 cycles
             Convg  =    0.5216D-08             -V/T =  2.0012
 Calling FoFJK, ICntrl=      2127 FMM=F ISym2X=0 I1Cent= 0 IOpClX= 0 NMat=1 NMatS=1 NMatT=0.
 -------------------------------------------------------------------
 Center     Atomic                   Forces (Hartrees/Bohr)
 Number     Number              X              Y              Z
 -------------------------------------------------------------------
      1        6          -0.000696549    0.000778447    0.002224843
      2        6           0.000064431   -0.001244758   -0.001150057
      3        8           0.000547291    0.000307509    0.001364081
      4        1          -0.000407717   -0.000293298   -0.000003522
      5        1          -0.001237064   -0.001085441    0.000134345
      6        1           0.001844858    0.001373796    0.000211083
      7        1          -0.000831345   -0.000925405   -0.001270711
      8        1           0.000218444    0.001267942   -0.000498689
      9        1           0.000497652   -0.000178791   -0.001011374
 -------------------------------------------------------------------
 Cartesian Forces:  Max     0.002224843 RMS     0.000978568

 GradGradGradGradGradGradGradGradGradGradGradGradGradGradGradGradGradGrad
 Berny optimization.
 Using GEDIIS/GDIIS optimizer.
 Internal  Forces:  Max     0.003630312 RMS     0.001024123
 Search for a local minimum.
 Step number   2 out of a maximum of   43 on scan point     2 out of     9
 All quantities printed in internal units (Hartrees-Bohrs-Radians)
 Mixed Optimization -- RFO/linear search
 Update second derivatives using D2CorX and points    1    2
 DE= -9.60D-04 DEPred=-1.19D-03 R= 8.09D-01
 SS=  1.41D+00  RLast= 1.85D-01 DXNew= 8.4853D-01 5.5543D-01
 Trust test= 8.09D-01 RLast= 1.85D-01 DXMaxT set to 5.55D-01
 Use linear search instead of GDIIS.
     Eigenvalues ---    0.00477   0.04744   0.05515   0.05918   0.06367
     Eigenvalues ---    0.11321   0.13029   0.14624   0.16062   0.17007
     Eigenvalues ---    0.18969   0.25641   0.32782   0.35063   0.35272
     Eigenvalues ---    0.35494   0.35793   0.36280   0.50307   0.58793
     Eigenvalues --- 1000.000001000.000001000.000001000.000001000.00000
     Eigenvalues --- 1000.000001000.000001000.000001000.000001000.00000
     Eigenvalues --- 1000.000001000.000001000.00000
 RFO step:  Lambda=-1.22960772D-04 EMin= 4.77488281D-03
 Quartic linear search produced a step of -0.14428.
 Iteration  1 RMS(Cart)=  0.00805572 RMS(Int)=  0.00010998
 Iteration  2 RMS(Cart)=  0.00006089 RMS(Int)=  0.00009126
 Iteration  3 RMS(Cart)=  0.00000000 RMS(Int)=  0.00009126
 Iteration  1 RMS(Cart)=  0.00000030 RMS(Int)=  0.00000027
 Variable       Old X    -DE/DX   Delta X   Delta X   Delta X     New X
                                 (Linear)    (Quad)   (Total)
    R1        2.86458  -0.00007  -0.00006  -0.00035  -0.00041   2.86417
    R2        2.05164   0.00015   0.00001   0.00022   0.00022   2.05187
    R3        2.04724   0.00080   0.00025   0.00169   0.00194   2.04919
    R4        2.05090  -0.00103  -0.00028  -0.00208  -0.00236   2.04854
    R5        2.65459   0.00069  -0.00007   0.00082   0.00075   2.65534
    R6        2.06072  -0.00161  -0.00050  -0.00333  -0.00383   2.05689
    R7        2.05372   0.00123   0.00051   0.00216   0.00267   2.05639
    R8        1.78848   0.00015   0.00023  -0.00019   0.00004   1.78851
    A1        1.92623   0.00093   0.00073   0.00453   0.00520   1.93142
    A2        1.90880   0.00258   0.00236   0.01269   0.01504   1.92384
    A3        1.94757  -0.00363  -0.00328  -0.01814  -0.02139   1.92618
    A4        1.89705  -0.00103  -0.00015   0.00048   0.00023   1.89729
    A5        1.89405   0.00087   0.00028   0.00021   0.00047   1.89452
    A6        1.88909   0.00030   0.00007   0.00044   0.00057   1.88967
    A7        1.88397   0.00097  -0.00005   0.00389   0.00402   1.88800
    A8        1.92154  -0.00087  -0.01109   0.00674  -0.00439   1.91715
    A9        1.92314   0.00011   0.01061  -0.00989   0.00069   1.92382
   A10        1.93011   0.00004   0.00032  -0.00024   0.00027   1.93038
   A11        1.92728  -0.00027   0.00006   0.00188   0.00213   1.92941
   A12        1.87819   0.00001  -0.00012  -0.00246  -0.00280   1.87539
   A13        1.91024   0.00106   0.00050   0.00408   0.00458   1.91482
    D1       -3.13577   0.00043  -0.00483   0.00538   0.00058  -3.13520
    D2        1.03904   0.00031   0.00098  -0.00074   0.00038   1.03943
    D3       -1.02991   0.00076   0.00199   0.00421   0.00610  -1.02380
    D4        1.06126  -0.00048  -0.00661  -0.00593  -0.01259   1.04867
    D5       -1.04711  -0.00061  -0.00080  -0.01206  -0.01279  -1.05989
    D6       -3.11606  -0.00015   0.00020  -0.00710  -0.00706  -3.12312
    D7       -1.02831  -0.00026  -0.00615  -0.00337  -0.00949  -1.03780
    D8       -3.13668  -0.00039  -0.00034  -0.00949  -0.00969   3.13682
    D9        1.07755   0.00007   0.00067  -0.00454  -0.00396   1.07359
   D10       -2.96706  -0.00021   0.00000   0.00000   0.00000  -2.96706
   D11       -0.86405  -0.00064  -0.01325   0.01054  -0.00269  -0.86674
   D12        1.21285  -0.00078  -0.01316   0.00853  -0.00465   1.20821
         Item               Value     Threshold  Converged?
 Maximum Force            0.003630     0.000450     NO 
 RMS     Force            0.001039     0.000300     NO 
 Maximum Displacement     0.021940     0.001800     NO 
 RMS     Displacement     0.008067     0.001200     NO 
 Predicted change in Energy=-8.957286D-05
 GradGradGradGradGradGradGradGradGradGradGradGradGradGradGradGradGradGrad

                          Input orientation:                          
 ---------------------------------------------------------------------
 Center     Atomic      Atomic             Coordinates (Angstroms)
 Number     Number       Type             X           Y           Z
 ---------------------------------------------------------------------
      1          6           0       -1.187088   -0.233457   -0.020688
      2          6           0        0.084344    0.590952    0.011248
      3          8           0        1.175972   -0.281030   -0.138523
      4          1           0       -2.059720    0.403834    0.085787
      5          1           0       -1.184744   -0.957639    0.786431
      6          1           0       -1.264836   -0.770658   -0.959043
      7          1           0        0.151478    1.130205    0.954353
      8          1           0        0.073613    1.330132   -0.787291
      9          1           0        1.982201    0.184740    0.031196
 ---------------------------------------------------------------------
                    Distance matrix (angstroms):
                    1          2          3          4          5
     1  C    0.000000
     2  C    1.515655   0.000000
     3  O    2.366475   1.405146   0.000000
     4  H    1.085800   2.153504   3.314975   0.000000
     5  H    1.084383   2.147004   2.624180   1.763546   0.000000
     6  H    1.084038   2.148426   2.621170   1.761517   1.757286
     7  H    2.145237   1.088461   2.058045   2.484234   2.484509
     8  H    2.149851   1.088194   2.057167   2.484231   3.048599
     9  H    3.197182   1.940945   0.946441   4.048223   3.450355
                    6          7          8          9
     6  H    0.000000
     7  H    3.046360   0.000000
     8  H    2.496850   1.754809   0.000000
     9  H    3.526557   2.257801   2.371614   0.000000
 Symmetry turned off by external request.
 Stoichiometry    C2H6O
 Framework group  C1[X(C2H6O)]
 Deg. of freedom    21
 Full point group                 C1      NOp   1
 Rotational constants (GHZ):     35.8437211      9.4664611      8.2542095
 Standard basis: 6-31G(d) (6D, 7F)
 Integral buffers will be    131072 words long.
 Raffenetti 1 integral format.
 Two-electron integral symmetry is turned off.
    57 basis functions,   108 primitive gaussians,    57 cartesian basis functions
    13 alpha electrons       13 beta electrons
       nuclear repulsion energy        82.3983871436 Hartrees.
 NAtoms=    9 NActive=    9 NUniq=    9 SFac= 7.50D-01 NAtFMM=   80 NAOKFM=F Big=F
 One-electron integrals computed using PRISM.
 NBasis=    57 RedAO= T  NBF=    57
 NBsUse=    57 1.00D-06 NBFU=    57
 Initial guess read from the read-write file.
 B after Tr=     0.000000    0.000000    0.000000
         Rot=    1.000000    0.000000    0.000000    0.000000 Ang=   0.00 deg.
 Harris functional with IExCor=  205 diagonalized for initial guess.
 ExpMin= 1.61D-01 ExpMax= 5.48D+03 ExpMxC= 8.25D+02 IAcc=1 IRadAn=         1 AccDes= 0.00D+00
 HarFok:  IExCor=  205 AccDes= 0.00D+00 IRadAn=         1 IDoV= 1
 ScaDFX=  1.000000  1.000000  1.000000  1.000000
 FoFCou: FMM=F IPFlag=           0 FMFlag=      100000 FMFlg1=           0
         NFxFlg=           0 DoJE=T BraDBF=F KetDBF=T FulRan=T
         Omega=  0.000000  0.000000  1.000000  0.000000  0.000000 ICntrl=     500 IOpCl=  0
         NMat0=    1 NMatS0=    1 NMatT0=    0 NMatD0=    1 NMtDS0=    0 NMtDT0=    0
         I1Cent=           4 NGrid=           0.
 Symmetry not used in FoFCou.
 Requested convergence on RMS density matrix=1.00D-08 within 128 cycles.
 Requested convergence on MAX density matrix=1.00D-06.
 Requested convergence on             energy=1.00D-06.
 No special actions if energy rises.
 Keep R1 ints in memory in canonical form, NReq=2215640.
 SCF Done:  E(RHF) =  -154.075603256     A.U. after   10 cycles
             Convg  =    0.1603D-08             -V/T =  2.0012
 Calling FoFJK, ICntrl=      2127 FMM=F ISym2X=0 I1Cent= 0 IOpClX= 0 NMat=1 NMatS=1 NMatT=0.
 -------------------------------------------------------------------
 Center     Atomic                   Forces (Hartrees/Bohr)
 Number     Number              X              Y              Z
 -------------------------------------------------------------------
      1        6           0.000043587   -0.000071556   -0.000212182
      2        6           0.000234734    0.000013460    0.000650930
      3        8          -0.000448818   -0.000220734    0.000887173
      4        1           0.000105197   -0.000005782   -0.000005710
      5        1          -0.000107449    0.000076436   -0.000147287
      6        1           0.000042883   -0.000147261   -0.000164230
      7        1           0.000047167   -0.000026080    0.000007444
      8        1           0.000040271    0.000107249   -0.000121003
      9        1           0.000042428    0.000274268   -0.000895134
 -------------------------------------------------------------------
 Cartesian Forces:  Max     0.000895134 RMS     0.000309000

 GradGradGradGradGradGradGradGradGradGradGradGradGradGradGradGradGradGrad
 Berny optimization.
 Using GEDIIS/GDIIS optimizer.
 Internal  Forces:  Max     0.000811579 RMS     0.000227975
 Search for a local minimum.
 Step number   3 out of a maximum of   43 on scan point     2 out of     9
 All quantities printed in internal units (Hartrees-Bohrs-Radians)
 Mixed Optimization -- En-DIIS/RFO-DIIS
 Update second derivatives using D2CorX and points    1    2    3
 DE= -8.93D-05 DEPred=-8.96D-05 R= 9.97D-01
 SS=  1.41D+00  RLast= 3.81D-02 DXNew= 9.3412D-01 1.1427D-01
 Trust test= 9.97D-01 RLast= 3.81D-02 DXMaxT set to 5.55D-01
 Use linear search instead of GDIIS.
     Eigenvalues ---    0.00482   0.04716   0.05565   0.05879   0.06402
     Eigenvalues ---    0.11282   0.13040   0.14716   0.16056   0.16935
     Eigenvalues ---    0.18153   0.26184   0.32818   0.34973   0.35291
     Eigenvalues ---    0.35506   0.36021   0.36431   0.50933   0.58813
     Eigenvalues --- 1000.000001000.000001000.000001000.000001000.00000
     Eigenvalues --- 1000.000001000.000001000.000001000.000001000.00000
     Eigenvalues --- 1000.000001000.000001000.00000
 RFO step:  Lambda=-1.94389631D-06 EMin= 4.81899481D-03
 Quartic linear search produced a step of -0.00245.
[...]

 GradGradGradGradGradGradGradGradGradGradGradGradGradGradGradGradGradGrad
 Berny optimization.
 Using GEDIIS/GDIIS optimizer.
 Internal  Forces:  Max     0.001440429 RMS     0.000355881
 Search for a local minimum.
 Step number   3 out of a maximum of   43 on scan point     9 out of     9
 All quantities printed in internal units (Hartrees-Bohrs-Radians)
 Mixed Optimization -- En-DIIS/RFO-DIIS
 Swaping is turned off.
 Update second derivatives using D2CorX and points    1    2    3
 DE= -6.59D-06 DEPred=-6.49D-06 R= 1.02D+00
 SS=  1.41D+00  RLast= 1.73D-02 DXNew= 9.6548D-01 5.1884D-02
 Trust test= 1.02D+00 RLast= 1.73D-02 DXMaxT set to 5.74D-01
     Eigenvalues ---    0.00304   0.04652   0.05536   0.05954   0.06087
     Eigenvalues ---    0.12490   0.13531   0.15631   0.16375   0.18736
     Eigenvalues ---    0.19368   0.28097   0.34151   0.35030   0.35367
     Eigenvalues ---    0.35892   0.36489   0.37035   0.45529   0.58852
     Eigenvalues --- 1000.000001000.000001000.000001000.000001000.00000
     Eigenvalues --- 1000.000001000.000001000.000001000.000001000.00000
     Eigenvalues --- 1000.000001000.000001000.00000
 En-DIIS/RFO-DIIS IScMMF=        0 using points:     3    2
 RFO step:  Lambda=-3.28216257D-07.
 DIIS coeffs:      1.00929     -0.00929
 Iteration  1 RMS(Cart)=  0.00045274 RMS(Int)=  0.00000020
 Iteration  2 RMS(Cart)=  0.00000013 RMS(Int)=  0.00000017
 Iteration  1 RMS(Cart)=  0.00000035 RMS(Int)=  0.00000031
 Variable       Old X    -DE/DX   Delta X   Delta X   Delta X     New X
                                  (DIIS)     (GDIIS)  (Total)
    R1        2.87278  -0.00001  -0.00003  -0.00002  -0.00005   2.87274
    R2        2.05329  -0.00007   0.00000  -0.00015  -0.00015   2.05314
    R3        2.05212   0.00001  -0.00001   0.00001   0.00000   2.05212
    R4        2.04870   0.00007   0.00001   0.00016   0.00017   2.04887
    R5        2.65936   0.00000   0.00001   0.00009   0.00011   2.65947
    R6        2.05449   0.00000   0.00000  -0.00001  -0.00002   2.05447
    R7        2.04789   0.00006   0.00000   0.00015   0.00015   2.04804
    R8        1.78614  -0.00003   0.00000  -0.00004  -0.00004   1.78610
    A1        1.93495  -0.00006   0.00002  -0.00007  -0.00005   1.93490
    A2        1.93595   0.00008  -0.00002   0.00042   0.00040   1.93635
    A3        1.92149   0.00001  -0.00001  -0.00012  -0.00012   1.92136
    A4        1.88958   0.00000   0.00000   0.00010   0.00011   1.88968
    A5        1.89448   0.00001   0.00001  -0.00006  -0.00006   1.89443
    A6        1.88605  -0.00004   0.00000  -0.00028  -0.00028   1.88577
    A7        1.94466  -0.00025  -0.00001  -0.00077  -0.00078   1.94388
    A8        1.92904  -0.00051   0.00003   0.00049   0.00052   1.92956
    A9        1.91773   0.00067  -0.00003   0.00015   0.00012   1.91785
   A10        1.93358   0.00010   0.00000   0.00010   0.00010   1.93368
   A11        1.86727   0.00008  -0.00001   0.00036   0.00035   1.86762
   A12        1.86900  -0.00006   0.00002  -0.00031  -0.00029   1.86870
   A13        1.92062  -0.00007  -0.00003  -0.00023  -0.00026   1.92035
    D1       -3.08792  -0.00026  -0.00003   0.00038   0.00035  -3.08757
    D2        1.03738   0.00016  -0.00005   0.00045   0.00040   1.03778
    D3       -1.02153   0.00012  -0.00006   0.00043   0.00037  -1.02116
    D4        1.09533  -0.00027  -0.00003   0.00002  -0.00002   1.09531
    D5       -1.06256   0.00015  -0.00005   0.00008   0.00004  -1.06252
    D6       -3.12147   0.00011  -0.00006   0.00007   0.00001  -3.12146
    D7       -0.99136  -0.00027  -0.00002   0.00018   0.00016  -0.99119
    D8        3.13394   0.00015  -0.00003   0.00025   0.00022   3.13416
    D9        1.07503   0.00011  -0.00005   0.00024   0.00019   1.07522
   D10       -1.74533   0.00144   0.00000   0.00000   0.00000  -1.74533
   D11        0.40998   0.00068   0.00003   0.00016   0.00018   0.41016
   D12        2.44144   0.00071   0.00004   0.00005   0.00009   2.44153
         Item               Value     Threshold  Converged?
 Maximum Force            0.000227     0.000450     YES
 RMS     Force            0.000058     0.000300     YES
 Maximum Displacement     0.001038     0.001800     YES
 RMS     Displacement     0.000453     0.001200     YES
 Predicted change in Energy=-1.906844D-07
 Optimization completed.
    -- Stationary point found.
                           ----------------------------
                           !   Optimized Parameters   !
                           ! (Angstroms and Degrees)  !
 --------------------------                            --------------------------
 ! Name  Definition              Value          Derivative Info.                !
 --------------------------------------------------------------------------------
 ! R1    R(1,2)                  1.5202         -DE/DX =    0.0                 !
 ! R2    R(1,4)                  1.0866         -DE/DX =   -0.0001              !
 ! R3    R(1,5)                  1.0859         -DE/DX =    0.0                 !
 ! R4    R(1,6)                  1.0841         -DE/DX =    0.0001              !
 ! R5    R(2,3)                  1.4073         -DE/DX =    0.0                 !
 ! R6    R(2,7)                  1.0872         -DE/DX =    0.0                 !
 ! R7    R(2,8)                  1.0837         -DE/DX =    0.0001              !
 ! R8    R(3,9)                  0.9452         -DE/DX =    0.0                 !
 ! A1    A(2,1,4)              110.8644         -DE/DX =   -0.0001              !
 ! A2    A(2,1,5)              110.9219         -DE/DX =    0.0001              !
 ! A3    A(2,1,6)              110.0931         -DE/DX =    0.0                 !
 ! A4    A(4,1,5)              108.2648         -DE/DX =    0.0                 !
 ! A5    A(4,1,6)              108.546          -DE/DX =    0.0                 !
 ! A6    A(5,1,6)              108.0628         -DE/DX =    0.0                 !
 ! A7    A(1,2,3)              111.4209         -DE/DX =   -0.0002              !
 ! A8    A(1,2,7)              110.5261         -DE/DX =   -0.0005              !
 ! A9    A(1,2,8)              109.8778         -DE/DX =    0.0007              !
 ! A10   A(3,2,7)              110.7861         -DE/DX =    0.0001              !
 ! A11   A(3,2,8)              106.9865         -DE/DX =    0.0001              !
 ! A12   A(7,2,8)              107.0856         -DE/DX =   -0.0001              !
 ! A13   A(2,3,9)              110.0432         -DE/DX =   -0.0001              !
 ! D1    D(4,1,2,3)           -176.9246         -DE/DX =   -0.0003              !
 ! D2    D(4,1,2,7)             59.4375         -DE/DX =    0.0002              !
 ! D3    D(4,1,2,8)            -58.5294         -DE/DX =    0.0001              !
 ! D4    D(5,1,2,3)             62.7578         -DE/DX =   -0.0003              !
 ! D5    D(5,1,2,7)            -60.8801         -DE/DX =    0.0001              !
 ! D6    D(5,1,2,8)           -178.847          -DE/DX =    0.0001              !
 ! D7    D(6,1,2,3)            -56.8005         -DE/DX =   -0.0003              !
 ! D8    D(6,1,2,7)            179.5617         -DE/DX =    0.0001              !
 ! D9    D(6,1,2,8)             61.5948         -DE/DX =    0.0001              !
 ! D10   D(1,2,3,9)            -99.9999         -DE/DX =    0.0014              !
 ! D11   D(7,2,3,9)             23.4902         -DE/DX =    0.0007              !
 ! D12   D(8,2,3,9)            139.8844         -DE/DX =    0.0007              !
 --------------------------------------------------------------------------------
 GradGradGradGradGradGradGradGradGradGradGradGradGradGradGradGradGradGrad

 Summary of Optimized Potential Surface Scan
                           1         2         3         4         5
     Eigenvalues --  -154.07574-154.07560-154.07522-154.07469-154.07415
           R1           1.51556   1.51570   1.51597   1.51649   1.51714
           R2           1.08570   1.08569   1.08579   1.08592   1.08607
           R3           1.08424   1.08412   1.08413   1.08419   1.08438
           R4           1.08423   1.08436   1.08441   1.08451   1.08451
           R5           1.40415   1.40478   1.40574   1.40651   1.40754
           R6           1.08849   1.08844   1.08820   1.08783   1.08743
           R7           1.08854   1.08845   1.08805   1.08762   1.08694
           R8           0.94659   0.94646   0.94605   0.94550   0.94494
           A1         110.60688 110.65233 110.66887 110.70465 110.74273
           A2         110.35049 110.29891 110.30846 110.35970 110.43906
           A3         110.29592 110.30664 110.31437 110.29321 110.25827
           A4         108.63764 108.70309 108.74986 108.76562 108.74159
           A5         108.62671 108.56660 108.50146 108.45692 108.43448
           A6         108.25919 108.24872 108.23195 108.19210 108.15266
           A7         108.02114 108.10573 108.30971 108.64988 109.10083
           A8         110.08843 109.88098 109.72392 109.68868 109.74162
           A9         110.09352 110.23766 110.35253 110.42339 110.38981
           A10        110.61760 110.61355 110.65744 110.61825 110.65106
           A11        110.52663 110.54621 110.38118 110.11385 109.67858
           A12        107.50341 107.46483 107.42080 107.34555 107.26680
           A13        109.60896 109.70442 109.83836 110.01922 110.18220
           D1        -179.87479-179.28296-178.56096-178.01041-177.55259
           D2          59.24398  59.91230  60.54910  60.95857  61.06108
           D3         -59.10157 -58.34676 -57.62941 -57.14892 -56.96196
           D4          59.88508  60.39926  61.04578  61.51970  61.93049
           D5         -60.99614 -60.40547 -59.84415 -59.51133 -59.45583
           D6        -179.34170-178.66453-178.02267-177.61882-177.47888
           D7         -59.68385 -59.13073 -58.47437 -57.97009 -57.53846
           D8         179.43493-179.93546-179.36430-179.00111-178.92479
           D9          61.08937  61.80548  62.45718  62.89140  63.05217
           D10       -179.99980-170.00002-159.99997-150.00004-139.99987
           D11        -59.44897 -49.65264 -39.69053 -29.54259 -19.16793
           D12         59.49763  69.25588  79.08623  88.94790  98.97458
                           6         7         8         9
     Eigenvalues --  -154.07377-154.07363-154.07380-154.07420
           R1           1.51792   1.51879   1.51924   1.52021
           R2           1.08626   1.08640   1.08644   1.08655
           R3           1.08468   1.08500   1.08543   1.08593
           R4           1.08441   1.08439   1.08435   1.08412
           R5           1.40872   1.40832   1.40847   1.40727
           R6           1.08705   1.08697   1.08691   1.08719
           R7           1.08610   1.08541   1.08453   1.08370
           R8           0.94454   0.94440   0.94465   0.94519
           A1         110.79592 110.81739 110.85794 110.86441
           A2         110.55874 110.68035 110.82000 110.92194
           A3         110.20622 110.14909 110.09267 110.09311
           A4         108.65949 108.56268 108.42959 108.26482
           A5         108.42917 108.46867 108.50037 108.54596
           A6         108.11439 108.08250 108.05557 108.06278
           A7         109.64250 110.26173 110.80991 111.42087
           A8         109.92109 110.11648 110.38926 110.52609
           A9         110.29933 110.12296 109.98527 109.87778
           A10        110.69293 110.74783 110.77408 110.78614
           A11        109.06871 108.41752 107.68296 106.98652
           A12        107.18390 107.10866 107.09107 107.08563
           A13        110.25956 110.32531 110.18356 110.04322
           D1        -177.19684-177.05150-176.92050-176.92465
           D2          60.90415  60.44391  59.98228  59.43751
           D3         -57.07222 -57.45217 -57.97412 -58.52938
           D4          62.27526  62.44754  62.62640  62.75775
           D5         -59.62374 -60.05704 -60.47083 -60.88009
           D6        -177.60011-177.95312-178.42722-178.84698
           D7         -57.18892 -57.01764 -56.85772 -56.80050
           D8        -179.08793-179.52222-179.95495 179.56166
           D9          62.93571  62.58170  62.08866  61.59477
           D10       -129.99992-119.99990-109.99981 -99.99989
           D11         -8.56396   2.13290  12.87478  23.49020
           D12        109.12801 119.37269 129.67337 139.88438
                          Input orientation:                          
 ---------------------------------------------------------------------
 Center     Atomic      Atomic             Coordinates (Angstroms)
 Number     Number       Type             X           Y           Z
 ---------------------------------------------------------------------
      1          6           0       -1.134523   -0.236475   -0.005730
      2          6           0        0.081445    0.673192   -0.076259
      3          8           0        1.248490   -0.051567   -0.381457
      4          1           0       -2.038069    0.338746    0.176821
      5          1           0       -1.027910   -0.965162    0.792329
      6          1           0       -1.251372   -0.775087   -0.939308
      7          1           0        0.200835    1.222798    0.854147
      8          1           0       -0.051470    1.405578   -0.863879
      9          1           0        1.743795   -0.214944    0.406806
 ---------------------------------------------------------------------
                    Distance matrix (angstroms):
                    1          2          3          4          5
     1  C    0.000000
     2  C    1.520212   0.000000
     3  O    2.419527   1.407272   0.000000
     4  H    1.086554   2.160611   3.356410   0.000000
     5  H    1.085933   2.160860   2.719269   1.760525   0.000000
     6  H    1.084124   2.149132   2.661576   1.762175   1.756312
     7  H    2.156860   1.087187   2.061142   2.500601   2.510140
     8  H    2.146103   1.083698   2.011442   2.483498   3.052355
     9  H    2.907810   1.945648   0.945187   3.829094   2.897206
                    6          7          8          9
     6  H    0.000000
     7  H    3.052365   0.000000
     8  H    2.490132   1.746047   0.000000
     9  H    3.331187   2.155909   2.731978   0.000000
 Symmetry turned off by external request.
 Stoichiometry    C2H6O
 Framework group  C1[X(C2H6O)]
 Deg. of freedom    21
 Full point group                 C1      NOp   1
 Rotational constants (GHZ):     35.3080919      9.2365571      8.2259308

 **********************************************************************

            Population analysis using the SCF density.

 **********************************************************************

 Alpha  occ. eigenvalues --  -20.55205 -11.27084 -11.20966  -1.35871  -1.01067
 Alpha  occ. eigenvalues --   -0.84389  -0.70010  -0.62937  -0.57975  -0.55100
 Alpha  occ. eigenvalues --   -0.52334  -0.47549  -0.43474
 Alpha virt. eigenvalues --    0.22058   0.26967   0.30401   0.31668   0.32439
 Alpha virt. eigenvalues --    0.34334   0.41526   0.41906   0.72842   0.74803
 Alpha virt. eigenvalues --    0.80281   0.81842   0.89591   0.92307   1.08413
 Alpha virt. eigenvalues --    1.13258   1.16813   1.18494   1.18870   1.20541
 Alpha virt. eigenvalues --    1.24536   1.28344   1.30362   1.45245   1.61558
 Alpha virt. eigenvalues --    1.71818   1.79382   1.81932   2.04679   2.09959
 Alpha virt. eigenvalues --    2.22350   2.26856   2.44186   2.50048   2.56272
 Alpha virt. eigenvalues --    2.64729   2.70139   2.78259   2.88024   3.01560
 Alpha virt. eigenvalues --    3.19561   4.16036   4.60578   4.82469
          Condensed to atoms (all electrons):
              1          2          3          4          5          6
     1  C    5.150950   0.346671  -0.058751   0.373475   0.385139   0.391474
     2  C    0.346671   4.753110   0.210816  -0.034065  -0.034099  -0.034272
     3  O   -0.058751   0.210816   8.392201   0.003329   0.001495   0.000863
     4  H    0.373475  -0.034065   0.003329   0.556288  -0.025986  -0.025595
     5  H    0.385139  -0.034099   0.001495  -0.025986   0.544964  -0.027911
     6  H    0.391474  -0.034272   0.000863  -0.025595  -0.027911   0.519117
     7  H   -0.049900   0.401783  -0.033093   0.000251  -0.004155   0.004589
     8  H   -0.054911   0.411210  -0.040539   0.000742   0.004464  -0.004182
     9  H    0.000961  -0.022532   0.262681  -0.000159   0.001133  -0.000267
              7          8          9
     1  C   -0.049900  -0.054911   0.000961
     2  C    0.401783   0.411210  -0.022532
     3  O   -0.033093  -0.040539   0.262681
     4  H    0.000251   0.000742  -0.000159
     5  H   -0.004155   0.004464   0.001133
     6  H    0.004589  -0.004182  -0.000267
     7  H    0.589634  -0.037488  -0.009308
     8  H   -0.037488   0.552257   0.005165
     9  H   -0.009308   0.005165   0.323422
 Mulliken atomic charges:
              1
     1  C   -0.485109
     2  C    0.001378
     3  O   -0.739001
     4  H    0.151719
     5  H    0.154955
     6  H    0.176184
     7  H    0.137688
     8  H    0.163282
     9  H    0.438904
 Sum of Mulliken atomic charges =   0.00000
 Mulliken charges with hydrogens summed into heavy atoms:
              1
     1  C   -0.002250
     2  C    0.302348
     3  O   -0.300097
 Sum of Mulliken charges with hydrogens summed into heavy atoms =   0.00000
 Electronic spatial extent (au):  <R**2>=            196.5385
 Charge=              0.0000 electrons
 Dipole moment (field-independent basis, Debye):
    X=             -0.4312    Y=              0.5010    Z=              1.7043  Tot=              1.8280
 Quadrupole moment (field-independent basis, Debye-Ang):
   XX=            -19.6608   YY=            -19.7506   ZZ=            -19.7735
   XY=             -0.4804   XZ=              3.3167   YZ=             -0.4900
 Traceless Quadrupole moment (field-independent basis, Debye-Ang):
   XX=              0.0675   YY=             -0.0223   ZZ=             -0.0452
   XY=             -0.4804   XZ=              3.3167   YZ=             -0.4900
 Octapole moment (field-independent basis, Debye-Ang**2):
  XXX=              6.4789  YYY=             -7.5046  ZZZ=              7.0162  XYY=              0.7817
  XXY=             -3.4194  XXZ=              7.4457  XZZ=              0.7811  YZZ=             -2.6282
  YYZ=              2.2852  XYZ=             -0.6168
 Hexadecapole moment (field-independent basis, Debye-Ang**3):
 XXXX=           -142.4331 YYYY=            -57.9652 ZZZZ=            -36.6084 XXXY=            -11.5580
 XXXZ=             14.7276 YYYX=             -7.1259 YYYZ=              0.0463 ZZZX=              8.3469
 ZZZY=              0.6648 XXYY=            -34.9101 XXZZ=            -31.9547 YYZZ=            -14.5148
 XXYZ=              0.1110 YYXZ=              2.6088 ZZXY=             -1.7896
 N-N= 8.216052611285D+01 E-N=-5.260787032770D+02  KE= 1.538884653405D+02
 1\1\GINC-B201\Scan\RHF\6-31G(d)\C2H6O1\ROOT\22-Aug-2017\0\\#HF/6-31G* 
 nosymm opt=ModRedundant\\Mol dihedral scan\\0,1\C,-1.1345227923,-0.236
 4745916,-0.0057301607\C,0.0814446383,0.6731918731,-0.0762590099\O,1.24
 84897017,-0.0515668644,-0.3814571101\H,-2.0380689492,0.3387463988,0.17
 68206223\H,-1.027909834,-0.9651619514,0.7923293563\H,-1.2513721783,-0.
 7750874018,-0.9393083\H,0.2008345469,1.2227979674,0.8541472292\H,-0.05
 14698663,1.4055783065,-0.8638785298\H,1.7437947331,-0.2149437366,0.406
 8059028\\Version=EM64L-G09RevA.02\HF=-154.0757441,-154.0756044,-154.07
 52188,-154.0746884,-154.0741544,-154.0737652,-154.0736329,-154.0737953
 ,-154.0742016\RMSD=2.606e-09,3.401e-09,2.978e-09,3.399e-09,2.471e-09,2
 .627e-09,1.894e-09,9.158e-09,3.149e-09\PG=C01 [X(C2H6O1)]\\@


 LIFE CAN ONLY BE UNDERSTOOD BACKWARD, BUT MUST
 BE LIVED FORWARD. -- KIRKEGAARD
 Job cpu time:  0 days  0 hours  1 minutes 14.5 seconds.
 File lengths (MBytes):  RWF=      5 Int=      0 D2E=      0 Chk=      2 Scr=      1
 Normal termination of Gaussian 09 at Tue Aug 22 03:07:47 2017.
