 Entering Gaussian System, Link 0=/homes/huanglei/prog/g09/g09
 AtFile(1): pgrid.xyz
 Initial command:
 /homes/huanglei/prog/g09/l1.exe /lcrc/project/Drude/chetan/tmp/Gau-28162.inp -scrdir=/lcrc/project/Drude/chetan/tmp/
 Entering Link 1 = /homes/huanglei/prog/g09/l1.exe PID=     28163.
  
 Copyright (c) 1988,1990,1992,1993,1995,1998,2003,2009, Gaussian, Inc.
                  All Rights Reserved.
  
 This is part of the Gaussian(R) 09 program.  It is based on
 the Gaussian(R) 03 system (copyright 2003, Gaussian, Inc.),
 the Gaussian(R) 98 system (copyright 1998, Gaussian, Inc.),
 the Gaussian(R) 94 system (copyright 1995, Gaussian, Inc.),
 the Gaussian 92(TM) system (copyright 1992, Gaussian, Inc.),
 the Gaussian 90(TM) system (copyright 1990, Gaussian, Inc.),
 the Gaussian 88(TM) system (copyright 1988, Gaussian, Inc.),
 the Gaussian 86(TM) system (copyright 1986, Carnegie Mellon
 University), and the Gaussian 82(TM) system (copyright 1983,
 Carnegie Mellon University). Gaussian is a federally registered
 trademark of Gaussian, Inc.
  
 This software contains proprietary and confidential information,
 including trade secrets, belonging to Gaussian, Inc.
  
 This software is provided under written license and may be
 used, copied, transmitted, or stored only in accord with that
 written license.
  
 The following legend is applicable only to US Government
 contracts under FAR:
  
                    RESTRICTED RIGHTS LEGEND
  
 Use, reproduction and disclosure by the US Government is
 subject to restrictions as set forth in subparagraphs (a)
 and (c) of the Commercial Computer Software - Restricted
 Rights clause in FAR 52.227-19.
  
 Gaussian, Inc.
 340 Quinnipiac St., Bldg. 40, Wallingford CT 06492
  
  
 ---------------------------------------------------------------
 Warning -- This program may not be used in any manner that
 competes with the business of Gaussian, Inc. or will provide
 assistance to any competitor of Gaussian, Inc.  The licensee
 of this program is prohibited from giving any competitor of
 Gaussian, Inc. access to this program.  By using this program,
 the user acknowledges that Gaussian, Inc. is engaged in the
 business of creating and licensing software in the field of
 computational chemistry and represents and warrants to the
 licensee that it is not a competitor of Gaussian, Inc. and that
 it will not use this program in any manner prohibited above.
 ---------------------------------------------------------------
  

 Cite this work as:
 Gaussian 09, Revision A.02,
 M. J. Frisch, G. W. Trucks, H. B. Schlegel, G. E. Scuseria, 
 M. A. Robb, J. R. Cheeseman, G. Scalmani, V. Barone, B. Mennucci, 
 G. A. Petersson, H. Nakatsuji, M. Caricato, X. Li, H. P. Hratchian, 
 A. F. Izmaylov, J. Bloino, G. Zheng, J. L. Sonnenberg, M. Hada, 
 M. Ehara, K. Toyota, R. Fukuda, J. Hasegawa, M. Ishida, T. Nakajima, 
 Y. Honda, O. Kitao, H. Nakai, T. Vreven, J. A. Montgomery, Jr., 
 J. E. Peralta, F. Ogliaro, M. Bearpark, J. J. Heyd, E. Brothers, 
 K. N. Kudin, V. N. Staroverov, R. Kobayashi, J. Normand, 
 K. Raghavachari, A. Rendell, J. C. Burant, S. S. Iyengar, J. Tomasi, 
 M. Cossi, N. Rega, J. M. Millam, M. Klene, J. E. Knox, J. B. Cross, 
 V. Bakken, C. Adamo, J. Jaramillo, R. Gomperts, R. E. Stratmann, 
 O. Yazyev, A. J. Austin, R. Cammi, C. Pomelli, J. W. Ochterski, 
 R. L. Martin, K. Morokuma, V. G. Zakrzewski, G. A. Voth, 
 P. Salvador, J. J. Dannenberg, S. Dapprich, A. D. Daniels, 
 O. Farkas, J. B. Foresman, J. V. Ortiz, J. Cioslowski, 
 and D. J. Fox, Gaussian, Inc., Wallingford CT, 2009.
 
 ******************************************
 Gaussian 09:  EM64L-G09RevA.02 11-Jun-2009
                23-Jun-2017 
 ******************************************
 %mem=1GB
 %nproc=8
 Will use up to    8 processors via shared memory.
 -----------------------------------------------------
 #HF/6-31G* nosymm scf=tight pop=nbo prop=(read,field)
 -----------------------------------------------------
 1/38=1/1;
 2/12=2,15=1,17=6,18=5,40=1/2;
 3/5=1,6=6,7=1,11=9,16=1,25=1,30=1/1,2,3;
 4//1;
 5/5=2,32=2,38=5/2;
 6/7=2,8=2,9=2,10=2,14=2,15=1,28=1/1,2,7;
 99/5=1,9=1/99;
 ---
 Mol
 ---
 Symbolic Z-matrix:
 Charge =  0 Multiplicity = 1
 C                    -1.20905  -0.23651  -0.01918 
 C                     0.08991   0.55293   0.04491 
 O                     1.222    -0.26249  -0.11001 
 H                    -2.06738   0.42387   0.06207 
 H                    -1.26769  -0.95774   0.79247 
 H                    -1.27637  -0.77802  -0.95628 
 H                     0.14555   1.11298   0.97665 
 H                     0.13148   1.27043  -0.76403 
 H                     1.27318  -0.87009   0.61476 
 
                          Input orientation:                          
 ---------------------------------------------------------------------
 Center     Atomic      Atomic             Coordinates (Angstroms)
 Number     Number       Type             X           Y           Z
 ---------------------------------------------------------------------
      1          6           0       -1.209050   -0.236510   -0.019180
      2          6           0        0.089910    0.552930    0.044910
      3          8           0        1.222000   -0.262490   -0.110010
      4          1           0       -2.067380    0.423870    0.062070
      5          1           0       -1.267690   -0.957740    0.792470
      6          1           0       -1.276370   -0.778020   -0.956280
      7          1           0        0.145550    1.112980    0.976650
      8          1           0        0.131480    1.270430   -0.764030
      9          1           0        1.273180   -0.870090    0.614760
 ---------------------------------------------------------------------
                    Distance matrix (angstroms):
                    1          2          3          4          5
     1  C    0.000000
     2  C    1.521388   0.000000
     3  O    2.432885   1.403758   0.000000
     4  H    1.086017   2.161215   3.364628   0.000000
     5  H    1.087376   2.164266   2.737955   1.755515   0.000000
     6  H    1.084399   2.154189   2.687712   1.762746   1.757982
     7  H    2.155862   1.088527   2.057059   2.491664   2.513772
     8  H    2.150044   1.082090   1.991688   2.496816   3.056977
     9  H    2.639085   1.936451   0.947148   3.624795   2.548585
                    6          7          8          9
     6  H    0.000000
     7  H    3.055152   0.000000
     8  H    2.493020   1.747843   0.000000
     9  H    2.996139   2.309779   2.790406   0.000000
 Symmetry turned off by external request.
 Stoichiometry    C2H6O
 Framework group  C1[X(C2H6O)]
 Deg. of freedom    21
 Full point group                 C1      NOp   1
 Rotational constants (GHZ):     34.9218739      9.3155266      8.2312740
 Standard basis: 6-31G(d) (6D, 7F)
 Integral buffers will be    131072 words long.
 Raffenetti 1 integral format.
 Two-electron integral symmetry is turned off.
    57 basis functions,   108 primitive gaussians,    57 cartesian basis functions
    13 alpha electrons       13 beta electrons
       nuclear repulsion energy        82.2621243487 Hartrees.
 NAtoms=    9 NActive=    9 NUniq=    9 SFac= 7.50D-01 NAtFMM=   80 NAOKFM=F Big=F
 One-electron integrals computed using PRISM.
 NBasis=    57 RedAO= T  NBF=    57
 NBsUse=    57 1.00D-06 NBFU=    57
 Harris functional with IExCor=  205 diagonalized for initial guess.
 ExpMin= 1.61D-01 ExpMax= 5.48D+03 ExpMxC= 8.25D+02 IAcc=1 IRadAn=         1 AccDes= 0.00D+00
 HarFok:  IExCor=  205 AccDes= 0.00D+00 IRadAn=         1 IDoV= 1
 ScaDFX=  1.000000  1.000000  1.000000  1.000000
 FoFCou: FMM=F IPFlag=           0 FMFlag=      100000 FMFlg1=           0
         NFxFlg=           0 DoJE=T BraDBF=F KetDBF=T FulRan=T
         Omega=  0.000000  0.000000  1.000000  0.000000  0.000000 ICntrl=     500 IOpCl=  0
         NMat0=    1 NMatS0=    1 NMatT0=    0 NMatD0=    1 NMtDS0=    0 NMtDT0=    0
         I1Cent=           4 NGrid=           0.
 Symmetry not used in FoFCou.
 Requested convergence on RMS density matrix=1.00D-08 within 128 cycles.
 Requested convergence on MAX density matrix=1.00D-06.
 Requested convergence on             energy=1.00D-06.
 No special actions if energy rises.
 Keep R1 ints in memory in canonical form, NReq=2215754.
 SCF Done:  E(RHF) =  -154.075575741     A.U. after   12 cycles
             Convg  =    0.3747D-08             -V/T =  2.0012

 **********************************************************************

            Population analysis using the SCF density.

 **********************************************************************

 Alpha  occ. eigenvalues --  -20.55338 -11.27062 -11.21497  -1.36050  -1.01212
 Alpha  occ. eigenvalues --   -0.85066  -0.68995  -0.62473  -0.60497  -0.54446
 Alpha  occ. eigenvalues --   -0.52667  -0.47743  -0.43623
 Alpha virt. eigenvalues --    0.22323   0.27278   0.29762   0.31192   0.31980
 Alpha virt. eigenvalues --    0.34305   0.40734   0.42497   0.72898   0.74882
 Alpha virt. eigenvalues --    0.79045   0.81836   0.89763   0.91717   1.07789
 Alpha virt. eigenvalues --    1.14073   1.16313   1.18499   1.18638   1.20648
 Alpha virt. eigenvalues --    1.23894   1.28667   1.30327   1.42791   1.61459
 Alpha virt. eigenvalues --    1.72228   1.79135   1.84432   2.03818   2.10744
 Alpha virt. eigenvalues --    2.21874   2.27877   2.44772   2.46885   2.56253
 Alpha virt. eigenvalues --    2.63791   2.71408   2.76723   2.88820   3.00098
 Alpha virt. eigenvalues --    3.19635   4.16285   4.60103   4.82220
          Condensed to atoms (all electrons):
              1          2          3          4          5          6
     1  C    5.163474   0.347017  -0.053274   0.374809   0.386387   0.388383
     2  C    0.347017   4.740659   0.220362  -0.032525  -0.035727  -0.034552
     3  O   -0.053274   0.220362   8.378970   0.003295  -0.000557   0.001938
     4  H    0.374809  -0.032525   0.003295   0.545271  -0.026608  -0.023868
     5  H    0.386387  -0.035727  -0.000557  -0.026608   0.553568  -0.029506
     6  H    0.388383  -0.034552   0.001938  -0.023868  -0.029506   0.520454
     7  H   -0.055078   0.401538  -0.038795   0.001093  -0.004456   0.004771
     8  H   -0.045470   0.410439  -0.039106  -0.000727   0.004298  -0.004465
     9  H   -0.003517  -0.026128   0.261089  -0.000053   0.003336  -0.000410
              7          8          9
     1  C   -0.055078  -0.045470  -0.003517
     2  C    0.401538   0.410439  -0.026128
     3  O   -0.038795  -0.039106   0.261089
     4  H    0.001093  -0.000727  -0.000053
     5  H   -0.004456   0.004298   0.003336
     6  H    0.004771  -0.004465  -0.000410
     7  H    0.595776  -0.038729  -0.004915
     8  H   -0.038729   0.537958   0.005975
     9  H   -0.004915   0.005975   0.331341
 Mulliken atomic charges:
              1
     1  C   -0.502731
     2  C    0.008917
     3  O   -0.733922
     4  H    0.159313
     5  H    0.149263
     6  H    0.177256
     7  H    0.138794
     8  H    0.169827
     9  H    0.433282
 Sum of Mulliken atomic charges =   0.00000
 Mulliken charges with hydrogens summed into heavy atoms:
              1
     1  C   -0.016898
     2  C    0.317538
     3  O   -0.300640
 Sum of Mulliken charges with hydrogens summed into heavy atoms =   0.00000
 Electronic spatial extent (au):  <R**2>=            192.8529
 Charge=              0.0000 electrons
 Dipole moment (field-independent basis, Debye):
    X=             -1.2301    Y=             -0.1340    Z=              1.3378  Tot=              1.8223
 Quadrupole moment (field-independent basis, Debye-Ang):
   XX=            -22.3062   YY=            -18.5228   ZZ=            -19.0326
   XY=             -1.0461   XZ=              2.0582   YZ=             -1.5002
 Traceless Quadrupole moment (field-independent basis, Debye-Ang):
   XX=             -2.3523   YY=              1.4311   ZZ=              0.9213
   XY=             -1.0461   XZ=              2.0582   YZ=             -1.5002
 Octapole moment (field-independent basis, Debye-Ang**2):
  XXX=              2.3035  YYY=             -2.1246  ZZZ=              0.5194  XYY=              3.3150
  XXY=             -1.3859  XXZ=              2.6583  XZZ=              2.6205  YZZ=             -1.0709
  YYZ=              0.9821  XYZ=             -1.8968
 Hexadecapole moment (field-independent basis, Debye-Ang**3):
 XXXX=           -160.1713 YYYY=            -53.5593 ZZZZ=            -32.5335 XXXY=             -6.9090
 XXXZ=              3.8963 YYYX=             -4.2225 YYYZ=             -2.3306 ZZZX=              1.7984
 ZZZY=             -1.1785 XXYY=            -32.4231 XXZZ=            -30.8304 YYZZ=            -12.8742
 XXYZ=             -2.2877 YYXZ=              1.4979 ZZXY=             -0.7645
 N-N= 8.226212434873D+01 E-N=-5.262305438748D+02  KE= 1.538885039872D+02

 **********************************************************************

            Electrostatic Properties Using The SCF Density

 **********************************************************************

       Atomic Center    1 is at  -1.209050 -0.236510 -0.019180
       Atomic Center    2 is at   0.089910  0.552930  0.044910
       Atomic Center    3 is at   1.222000 -0.262490 -0.110010
       Atomic Center    4 is at  -2.067380  0.423870  0.062070
       Atomic Center    5 is at  -1.267690 -0.957740  0.792470
       Atomic Center    6 is at  -1.276370 -0.778020 -0.956280
       Atomic Center    7 is at   0.145550  1.112980  0.976650
       Atomic Center    8 is at   0.131480  1.270430 -0.764030
       Atomic Center    9 is at   1.273180 -0.870090  0.614760
      Read-in Center   10 is at  -1.568170  0.385510  1.954170
      Read-in Center   11 is at  -2.558900 -0.236510  1.589510
      Read-in Center   12 is at  -3.152420 -0.943840  0.345480
      Read-in Center   13 is at  -2.793300 -1.565860  0.345480
      Read-in Center   14 is at  -3.152420 -0.943840 -0.383840
      Read-in Center   15 is at  -2.793300 -1.565860 -0.383840
      Read-in Center   16 is at  -2.243100 -2.027530 -0.383840
      Read-in Center   17 is at  -0.175000 -2.027530 -0.383840
      Read-in Center   18 is at  -1.883980  0.932500 -1.627870
      Read-in Center   19 is at  -2.378060  0.438420 -1.627870
      Read-in Center   20 is at   1.674160  1.882280  0.409570
      Read-in Center   21 is at  -0.944140  2.343950  0.409570
      Read-in Center   22 is at   1.674160  1.882280 -0.319750
      Read-in Center   23 is at   0.449030 -0.069090 -1.928440
      Read-in Center   24 is at   2.281860  0.418640  1.391440
      Read-in Center   25 is at   2.919410 -0.262490  0.869990
      Read-in Center   26 is at   2.772660  0.427910  0.869990
      Read-in Center   27 is at   2.357790  0.998930  0.869990
      Read-in Center   28 is at   3.152220 -0.262490  0.230340
      Read-in Center   29 is at   3.021880  0.434790  0.230340
      Read-in Center   30 is at   2.648450  1.037890  0.230340
      Read-in Center   31 is at   2.082370  1.465370  0.230340
      Read-in Center   32 is at   3.021880 -0.959770  0.230340
      Read-in Center   33 is at   3.152220 -0.262490 -0.450360
      Read-in Center   34 is at   3.021880  0.434790 -0.450360
      Read-in Center   35 is at   2.648450  1.037890 -0.450360
      Read-in Center   36 is at   2.082370  1.465370 -0.450360
      Read-in Center   37 is at   0.693770 -2.119030 -0.450360
      Read-in Center   38 is at   1.400100 -2.184480 -0.450360
      Read-in Center   39 is at   2.082370 -1.990350 -0.450360
      Read-in Center   40 is at   2.648450 -1.562870 -0.450360
      Read-in Center   41 is at   3.021880 -0.959770 -0.450360
      Read-in Center   42 is at   2.919410 -0.262490 -1.090010
      Read-in Center   43 is at   2.772660  0.427910 -1.090010
      Read-in Center   44 is at   2.357790  0.998930 -1.090010
      Read-in Center   45 is at   0.373300 -1.732490 -1.090010
      Read-in Center   46 is at   1.044570 -1.950600 -1.090010
      Read-in Center   47 is at   1.746530 -1.876820 -1.090010
      Read-in Center   48 is at   2.357790 -1.523910 -1.090010
      Read-in Center   49 is at   2.772660 -0.952890 -1.090010
      Read-in Center   50 is at   2.481860 -0.262490 -1.611460
      Read-in Center   51 is at   2.281860  0.418640 -1.611460
      Read-in Center   52 is at   1.745370  0.883520 -1.611460
      Read-in Center   53 is at   0.396960 -1.214630 -1.611460
      Read-in Center   54 is at   1.042700 -1.509530 -1.611460
      Read-in Center   55 is at   1.745370 -1.408500 -1.611460
      Read-in Center   56 is at   2.281860 -0.943620 -1.611460
      Read-in Center   57 is at   1.892360 -0.262490 -1.951810
      Read-in Center   58 is at   1.557180  0.318060 -1.951810
      Read-in Center   59 is at   0.886820  0.318060 -1.951810
      Read-in Center   60 is at   0.886820 -0.843040 -1.951810
      Read-in Center   61 is at   1.557180 -0.843040 -1.951810
      Read-in Center   62 is at   1.222000 -0.262490 -2.070010
      Read-in Center   63 is at  -1.702920  1.055140  1.575700
      Read-in Center   64 is at  -2.431840  1.055140  1.575700
      Read-in Center   65 is at  -2.796300  0.423870  1.575700
      Read-in Center   66 is at  -1.521740  1.618650  1.109530
      Read-in Center   67 is at  -2.254310  1.723980  1.109530
      Read-in Center   68 is at  -2.927520  1.416530  1.109530
      Read-in Center   69 is at  -3.327650  0.793920  1.109530
      Read-in Center   70 is at  -3.327650  0.053820  1.109530
      Read-in Center   71 is at  -1.702920  2.020680  0.435910
      Read-in Center   72 is at  -2.431840  2.020680  0.435910
      Read-in Center   73 is at  -3.088580  1.704420  0.435910
      Read-in Center   74 is at  -3.543060  1.134520  0.435910
      Read-in Center   75 is at  -3.705260  0.423870  0.435910
      Read-in Center   76 is at  -3.543060 -0.286780  0.435910
      Read-in Center   77 is at  -1.702920  2.020680 -0.311770
      Read-in Center   78 is at  -2.431840  2.020680 -0.311770
      Read-in Center   79 is at  -3.088580  1.704420 -0.311770
      Read-in Center   80 is at  -3.543060  1.134520 -0.311770
      Read-in Center   81 is at  -3.705260  0.423870 -0.311770
      Read-in Center   82 is at  -3.543060 -0.286780 -0.311770
      Read-in Center   83 is at  -1.521740  1.618650 -0.985390
      Read-in Center   84 is at  -2.254310  1.723980 -0.985390
      Read-in Center   85 is at  -2.927520  1.416530 -0.985390
      Read-in Center   86 is at  -3.327650  0.793920 -0.985390
      Read-in Center   87 is at  -3.327650  0.053820 -0.985390
      Read-in Center   88 is at  -2.431840  1.055140 -1.451560
      Read-in Center   89 is at  -2.796300  0.423870 -1.451560
      Read-in Center   90 is at  -1.267690 -0.957740  2.472470
      Read-in Center   91 is at  -0.538770 -0.957740  2.306100
      Read-in Center   92 is at  -0.903230 -0.326470  2.306100
      Read-in Center   93 is at  -1.632150 -0.326470  2.306100
      Read-in Center   94 is at  -1.996610 -0.957740  2.306100
      Read-in Center   95 is at  -1.632150 -1.589010  2.306100
      Read-in Center   96 is at  -0.903230 -1.589010  2.306100
      Read-in Center   97 is at   0.045790 -0.957740  1.839930
      Read-in Center   98 is at  -2.527960 -0.587690  1.839930
      Read-in Center   99 is at  -2.527960 -1.327790  1.839930
      Read-in Center  100 is at  -2.127830 -1.950400  1.839930
      Read-in Center  101 is at  -1.454620 -2.257850  1.839930
      Read-in Center  102 is at  -0.722050 -2.152520  1.839930
      Read-in Center  103 is at  -0.162720 -1.667860  1.839930
      Read-in Center  104 is at  -2.905570 -0.957740  1.166310
      Read-in Center  105 is at  -2.743370 -1.668390  1.166310
      Read-in Center  106 is at  -2.288890 -2.238290  1.166310
      Read-in Center  107 is at  -1.632150 -2.554550  1.166310
      Read-in Center  108 is at  -0.903230 -2.554550  1.166310
      Read-in Center  109 is at  -0.246490 -2.238290  1.166310
      Read-in Center  110 is at  -2.288890 -2.238290  0.418630
      Read-in Center  111 is at  -1.632150 -2.554550  0.418630
      Read-in Center  112 is at  -0.903230 -2.554550  0.418630
      Read-in Center  113 is at  -0.246490 -2.238290  0.418630
      Read-in Center  114 is at  -1.640830 -2.374830 -0.582440
      Read-in Center  115 is at  -0.911910 -2.374830 -0.582440
      Read-in Center  116 is at  -2.914250 -0.778020 -1.330120
      Read-in Center  117 is at  -2.752050 -1.488670 -1.330120
      Read-in Center  118 is at  -2.297570 -2.058570 -1.330120
      Read-in Center  119 is at  -1.640830 -2.374830 -1.330120
      Read-in Center  120 is at  -0.911910 -2.374830 -1.330120
      Read-in Center  121 is at  -0.255170 -2.058570 -1.330120
      Read-in Center  122 is at   0.037110 -0.778020 -2.003740
      Read-in Center  123 is at  -0.171400 -0.067900 -2.003740
      Read-in Center  124 is at  -0.730730  0.416760 -2.003740
      Read-in Center  125 is at  -1.463300  0.522090 -2.003740
      Read-in Center  126 is at  -2.136510  0.214640 -2.003740
      Read-in Center  127 is at  -2.536640 -0.407970 -2.003740
      Read-in Center  128 is at  -2.536640 -1.148070 -2.003740
      Read-in Center  129 is at  -2.136510 -1.770680 -2.003740
      Read-in Center  130 is at  -1.463300 -2.078130 -2.003740
      Read-in Center  131 is at  -0.730730 -1.972800 -2.003740
      Read-in Center  132 is at  -0.171400 -1.488140 -2.003740
      Read-in Center  133 is at  -0.547450 -0.778020 -2.469910
      Read-in Center  134 is at  -0.911910 -0.146750 -2.469910
      Read-in Center  135 is at  -1.640830 -0.146750 -2.469910
      Read-in Center  136 is at  -2.005290 -0.778020 -2.469910
      Read-in Center  137 is at  -1.640830 -1.409290 -2.469910
      Read-in Center  138 is at  -0.911910 -1.409290 -2.469910
      Read-in Center  139 is at  -1.276370 -0.778020 -2.636280
      Read-in Center  140 is at   0.145550  1.112980  2.656650
      Read-in Center  141 is at   0.874470  1.112980  2.490280
      Read-in Center  142 is at   0.510010  1.744250  2.490280
      Read-in Center  143 is at  -0.218910  1.744250  2.490280
      Read-in Center  144 is at  -0.583370  1.112980  2.490280
      Read-in Center  145 is at  -0.218910  0.481710  2.490280
      Read-in Center  146 is at   0.510010  0.481710  2.490280
      Read-in Center  147 is at   1.459030  1.112980  2.024110
      Read-in Center  148 is at   1.250520  1.823100  2.024110
      Read-in Center  149 is at   0.691190  2.307760  2.024110
      Read-in Center  150 is at  -0.041380  2.413090  2.024110
      Read-in Center  151 is at  -0.714590  2.105640  2.024110
      Read-in Center  152 is at  -1.114720  1.483030  2.024110
      Read-in Center  153 is at  -1.114720  0.742930  2.024110
      Read-in Center  154 is at  -0.714590  0.120320  2.024110
      Read-in Center  155 is at  -0.041380 -0.187130  2.024110
      Read-in Center  156 is at   0.691190 -0.081800  2.024110
      Read-in Center  157 is at   1.250520  0.402860  2.024110
      Read-in Center  158 is at   1.783430  1.112980  1.350490
      Read-in Center  159 is at   1.621230  1.823630  1.350490
      Read-in Center  160 is at   1.166750  2.393530  1.350490
      Read-in Center  161 is at   0.510010  2.709790  1.350490
      Read-in Center  162 is at  -0.218910  2.709790  1.350490
      Read-in Center  163 is at  -0.875650  2.393530  1.350490
      Read-in Center  164 is at   1.166750  2.393530  0.602810
      Read-in Center  165 is at   0.510010  2.709790  0.602810
      Read-in Center  166 is at  -0.218910  2.709790  0.602810
      Read-in Center  167 is at   1.152680  2.550980 -0.390190
      Read-in Center  168 is at   0.495940  2.867240 -0.390190
      Read-in Center  169 is at  -0.232980  2.867240 -0.390190
      Read-in Center  170 is at  -0.889720  2.550980 -0.390190
      Read-in Center  171 is at   1.607160  1.981080 -1.137870
      Read-in Center  172 is at   1.152680  2.550980 -1.137870
      Read-in Center  173 is at   0.495940  2.867240 -1.137870
      Read-in Center  174 is at  -0.232980  2.867240 -1.137870
      Read-in Center  175 is at  -0.889720  2.550980 -1.137870
      Read-in Center  176 is at  -1.344200  1.981080 -1.137870
      Read-in Center  177 is at   1.444960  1.270430 -1.811490
      Read-in Center  178 is at   1.236450  1.980550 -1.811490
      Read-in Center  179 is at   0.677120  2.465210 -1.811490
      Read-in Center  180 is at  -0.055450  2.570540 -1.811490
      Read-in Center  181 is at  -0.728660  2.263090 -1.811490
      Read-in Center  182 is at  -1.128790  1.640480 -1.811490
      Read-in Center  183 is at  -1.128790  0.900380 -1.811490
      Read-in Center  184 is at   0.860400  1.270430 -2.277660
      Read-in Center  185 is at   0.495940  1.901700 -2.277660
      Read-in Center  186 is at  -0.232980  1.901700 -2.277660
      Read-in Center  187 is at  -0.597440  1.270430 -2.277660
      Read-in Center  188 is at  -0.232980  0.639160 -2.277660
      Read-in Center  189 is at   0.495940  0.639160 -2.277660
      Read-in Center  190 is at   0.131480  1.270430 -2.444030
      Read-in Center  191 is at   1.273180 -0.870090  2.294760
      Read-in Center  192 is at   2.002100 -0.870090  2.128390
      Read-in Center  193 is at   1.637640 -0.238820  2.128390
      Read-in Center  194 is at   0.544260 -0.870090  2.128390
      Read-in Center  195 is at   0.908720 -1.501360  2.128390
      Read-in Center  196 is at   1.637640 -1.501360  2.128390
      Read-in Center  197 is at   2.586660 -0.870090  1.662220
      Read-in Center  198 is at   2.378150 -0.159970  1.662220
      Read-in Center  199 is at   1.818820  0.324690  1.662220
      Read-in Center  200 is at   0.413040 -1.862750  1.662220
      Read-in Center  201 is at   1.086250 -2.170200  1.662220
      Read-in Center  202 is at   1.818820 -2.064870  1.662220
      Read-in Center  203 is at   2.378150 -1.580210  1.662220
      Read-in Center  204 is at   2.911060 -0.870090  0.988600
      Read-in Center  205 is at   0.251980 -2.150640  0.988600
      Read-in Center  206 is at   0.908720 -2.466900  0.988600
      Read-in Center  207 is at   1.637640 -2.466900  0.988600
      Read-in Center  208 is at   2.294380 -2.150640  0.988600
      Read-in Center  209 is at   2.748860 -1.580740  0.988600
      Read-in Center  210 is at   0.251980 -2.150640  0.240920
      Read-in Center  211 is at   0.908720 -2.466900  0.240920
      Read-in Center  212 is at   1.637640 -2.466900  0.240920
      Read-in Center  213 is at   2.294380 -2.150640  0.240920
      Read-in Center  214 is at   2.748860 -1.580740  0.240920
      Read-in Center  215 is at  -1.766720  0.729400  2.105910
      Read-in Center  216 is at  -2.174960  0.321160  2.105910
      Read-in Center  217 is at  -3.162150 -0.530890  1.344180
      Read-in Center  218 is at  -3.376630 -0.817310  0.831870
      Read-in Center  219 is at  -3.152440 -1.358530  0.831870
      Read-in Center  220 is at  -2.727710 -2.072260 -0.308470
      Read-in Center  221 is at  -0.472820 -2.502400 -0.308470
      Read-in Center  222 is at  -3.376630 -0.817310 -0.870230
      Read-in Center  223 is at  -3.152440 -1.358530 -0.870230
      Read-in Center  224 is at  -1.648560  1.689130 -1.382540
      Read-in Center  225 is at  -1.644580  1.294230 -1.815610
      Read-in Center  226 is at   0.089910 -0.562410  2.170000
      Read-in Center  227 is at   2.033300  1.674950  0.895960
      Read-in Center  228 is at  -1.496870  2.139710  0.895960
      Read-in Center  229 is at   0.826140  2.818820  0.334200
      Read-in Center  230 is at   0.239510  2.930730  0.334200
      Read-in Center  231 is at  -1.428750  2.388680  0.334200
      Read-in Center  232 is at  -1.428750  2.388680 -0.244380
      Read-in Center  233 is at   2.698960  0.309690  1.473910
      Read-in Center  234 is at   2.392530  0.804590  1.473910
      Read-in Center  235 is at   2.824820  0.830290  1.009990
      Read-in Center  236 is at   3.311950  0.297510  0.469740
      Read-in Center  237 is at   3.095800  0.819350  0.469740
      Read-in Center  238 is at   3.311950 -0.822490  0.469740
      Read-in Center  239 is at   3.462000 -0.262490 -0.110010
      Read-in Center  240 is at   3.391630  0.294580 -0.110010
      Read-in Center  241 is at   3.184930  0.816640 -0.110010
      Read-in Center  242 is at   2.854890  1.270900 -0.110010
      Read-in Center  243 is at   2.422250  1.628800 -0.110010
      Read-in Center  244 is at   2.854890 -1.795880 -0.110010
      Read-in Center  245 is at   3.184930 -1.341620 -0.110010
      Read-in Center  246 is at   3.391630 -0.819560 -0.110010
      Read-in Center  247 is at   3.311950  0.297510 -0.689760
      Read-in Center  248 is at   3.095800  0.819350 -0.689760
      Read-in Center  249 is at   0.140160 -2.136290 -0.689760
      Read-in Center  250 is at   1.782000 -2.352440 -0.689760
      Read-in Center  251 is at   3.095800 -1.344330 -0.689760
      Read-in Center  252 is at   3.311950 -0.822490 -0.689760
      Read-in Center  253 is at   2.824820  0.830290 -1.230010
      Read-in Center  254 is at   1.366970 -2.196960 -1.230010
      Read-in Center  255 is at   2.824820 -1.355270 -1.230010
      Read-in Center  256 is at   2.698960  0.309690 -1.693930
      Read-in Center  257 is at   2.392530  0.804590 -1.693930
      Read-in Center  258 is at   1.368150 -1.839650 -1.693930
      Read-in Center  259 is at   2.392530 -1.329570 -1.693930
      Read-in Center  260 is at   2.698960 -0.834670 -1.693930
      Read-in Center  261 is at   2.342000 -0.262490 -2.049910
      Read-in Center  262 is at   2.191950  0.297510 -2.049910
      Read-in Center  263 is at   1.782000  0.707460 -2.049910
      Read-in Center  264 is at   0.662000 -1.232440 -2.049910
      Read-in Center  265 is at   1.222000 -1.382490 -2.049910
      Read-in Center  266 is at   1.782000 -1.232440 -2.049910
      Read-in Center  267 is at   2.191950 -0.822490 -2.049910
      Read-in Center  268 is at   0.642250 -0.262490 -2.273680
      Read-in Center  269 is at  -2.067380  1.552420  1.615380
      Read-in Center  270 is at  -2.631650  1.401220  1.615380
      Read-in Center  271 is at  -3.044730  0.988140  1.615380
      Read-in Center  272 is at  -3.195930  0.423870  1.615380
      Read-in Center  273 is at  -3.044730 -0.140400  1.615380
      Read-in Center  274 is at  -2.661810  1.858940  1.190620
      Read-in Center  275 is at  -3.620690  0.423870  1.190620
      Read-in Center  276 is at  -2.800890  2.096100  0.655380
      Read-in Center  277 is at  -3.868500  0.724420  0.655380
      Read-in Center  278 is at  -3.868500  0.123320  0.655380
      Read-in Center  279 is at  -1.923900  2.338500  0.062070
      Read-in Center  280 is at  -2.494620  2.295730  0.062070
      Read-in Center  281 is at  -3.027380  2.086640  0.062070
      Read-in Center  282 is at  -3.474840  1.729800  0.062070
      Read-in Center  283 is at  -3.797240  1.256930  0.062070
      Read-in Center  284 is at  -3.965940  0.710030  0.062070
      Read-in Center  285 is at  -3.965940  0.137710  0.062070
      Read-in Center  286 is at  -3.797240 -0.409190  0.062070
      Read-in Center  287 is at  -2.800890  2.096100 -0.531240
      Read-in Center  288 is at  -3.868500  0.724420 -0.531240
      Read-in Center  289 is at  -3.868500  0.123320 -0.531240
      Read-in Center  290 is at  -2.661810  1.858940 -1.066480
      Read-in Center  291 is at  -3.620690  0.423870 -1.066480
      Read-in Center  292 is at  -2.067380  1.552420 -1.491240
      Read-in Center  293 is at  -2.631650  1.401220 -1.491240
      Read-in Center  294 is at  -3.044730  0.988140 -1.491240
      Read-in Center  295 is at  -3.195930  0.423870 -1.491240
      Read-in Center  296 is at  -0.139140 -0.957740  2.345780
      Read-in Center  297 is at  -0.290340 -0.393470  2.345780
      Read-in Center  298 is at  -1.267690  0.170810  2.345780
      Read-in Center  299 is at  -1.831960  0.019610  2.345780
      Read-in Center  300 is at  -2.245040 -0.393470  2.345780
      Read-in Center  301 is at  -2.396240 -0.957740  2.345780
      Read-in Center  302 is at  -2.245040 -1.522010  2.345780
      Read-in Center  303 is at  -1.831960 -1.935090  2.345780
      Read-in Center  304 is at  -1.267690 -2.086290  2.345780
      Read-in Center  305 is at  -0.703420 -1.935090  2.345780
      Read-in Center  306 is at  -0.290340 -1.522010  2.345780
      Read-in Center  307 is at  -2.821000 -0.957740  1.921020
      Read-in Center  308 is at  -1.862120 -2.392810  1.921020
      Read-in Center  309 is at  -3.068810 -1.258290  1.385780
      Read-in Center  310 is at  -2.001200 -2.629970  1.385780
      Read-in Center  311 is at  -2.997550 -1.790800  0.792470
      Read-in Center  312 is at  -2.675150 -2.263670  0.792470
      Read-in Center  313 is at  -2.227690 -2.620510  0.792470
      Read-in Center  314 is at  -1.694930 -2.829600  0.792470
      Read-in Center  315 is at  -1.124210 -2.872370  0.792470
      Read-in Center  316 is at  -0.566240 -2.745020  0.792470
      Read-in Center  317 is at  -0.070590 -2.458860  0.792470
      Read-in Center  318 is at  -2.001200 -2.629970  0.199160
      Read-in Center  319 is at  -2.683830 -2.083950 -0.956280
      Read-in Center  320 is at  -2.236370 -2.440790 -0.956280
      Read-in Center  321 is at  -1.703610 -2.649880 -0.956280
      Read-in Center  322 is at  -1.132890 -2.692650 -0.956280
      Read-in Center  323 is at  -0.574920 -2.565300 -0.956280
      Read-in Center  324 is at  -3.077490 -0.477470 -1.549590
      Read-in Center  325 is at  -3.077490 -1.078570 -1.549590
      Read-in Center  326 is at  -2.009880 -2.450250 -1.549590
      Read-in Center  327 is at   0.164620 -1.899590 -1.549590
      Read-in Center  328 is at  -2.829680 -0.778020 -2.084830
      Read-in Center  329 is at  -1.870800 -2.213090 -2.084830
      Read-in Center  330 is at  -0.147820 -0.778020 -2.509590
      Read-in Center  331 is at  -0.299020 -0.213750 -2.509590
      Read-in Center  332 is at  -0.712100  0.199330 -2.509590
      Read-in Center  333 is at  -1.276370  0.350530 -2.509590
      Read-in Center  334 is at  -1.840640  0.199330 -2.509590
      Read-in Center  335 is at  -2.253720 -0.213750 -2.509590
      Read-in Center  336 is at  -2.404920 -0.778020 -2.509590
      Read-in Center  337 is at  -2.253720 -1.342290 -2.509590
      Read-in Center  338 is at  -1.840640 -1.755370 -2.509590
      Read-in Center  339 is at  -1.276370 -1.906570 -2.509590
      Read-in Center  340 is at  -0.712100 -1.755370 -2.509590
      Read-in Center  341 is at  -0.299020 -1.342290 -2.509590
      Read-in Center  342 is at   1.274100  1.112980  2.529960
      Read-in Center  343 is at   1.122900  1.677250  2.529960
      Read-in Center  344 is at   0.709820  2.090330  2.529960
      Read-in Center  345 is at   0.145550  2.241530  2.529960
      Read-in Center  346 is at  -0.418720  2.090330  2.529960
      Read-in Center  347 is at  -0.831800  1.677250  2.529960
      Read-in Center  348 is at  -0.983000  1.112980  2.529960
      Read-in Center  349 is at  -0.831800  0.548710  2.529960
      Read-in Center  350 is at  -0.418720  0.135630  2.529960
      Read-in Center  351 is at   0.145550 -0.015570  2.529960
      Read-in Center  352 is at   0.709820  0.135630  2.529960
      Read-in Center  353 is at   1.122900  0.548710  2.529960
      Read-in Center  354 is at  -0.448880  2.548050  2.105200
      Read-in Center  355 is at  -1.407760  1.112980  2.105200
      Read-in Center  356 is at   1.586540  2.234550  1.569960
      Read-in Center  357 is at  -0.587960  2.785210  1.569960
      Read-in Center  358 is at  -1.460390  1.982070  1.569960
      Read-in Center  359 is at   1.731930  2.194550  0.976650
      Read-in Center  360 is at   1.342650  2.614100  0.976650
      Read-in Center  361 is at   0.847000  2.900260  0.976650
      Read-in Center  362 is at   0.289030  3.027610  0.976650
      Read-in Center  363 is at  -0.281690  2.984840  0.976650
      Read-in Center  364 is at  -0.814450  2.775750  0.976650
      Read-in Center  365 is at  -0.602030  2.942660 -0.170720
      Read-in Center  366 is at   1.966180  1.836360 -0.764030
      Read-in Center  367 is at   1.717860  2.352000 -0.764030
      Read-in Center  368 is at   1.328580  2.771550 -0.764030
      Read-in Center  369 is at   0.832930  3.057710 -0.764030
      Read-in Center  370 is at   0.274960  3.185060 -0.764030
      Read-in Center  371 is at  -0.295760  3.142290 -0.764030
      Read-in Center  372 is at  -0.828520  2.933200 -0.764030
      Read-in Center  373 is at  -1.275980  2.576360 -0.764030
      Read-in Center  374 is at  -1.598380  2.103490 -0.764030
      Read-in Center  375 is at   1.572470  2.392000 -1.357340
      Read-in Center  376 is at  -0.602030  2.942660 -1.357340
      Read-in Center  377 is at  -0.462950  2.705500 -1.892580
      Read-in Center  378 is at   1.260030  1.270430 -2.317340
      Read-in Center  379 is at   1.108830  1.834700 -2.317340
      Read-in Center  380 is at   0.695750  2.247780 -2.317340
      Read-in Center  381 is at   0.131480  2.398980 -2.317340
      Read-in Center  382 is at  -0.432790  2.247780 -2.317340
      Read-in Center  383 is at  -0.845870  1.834700 -2.317340
      Read-in Center  384 is at  -0.997070  1.270430 -2.317340
      Read-in Center  385 is at  -0.845870  0.706160 -2.317340
      Read-in Center  386 is at   0.695750  0.293080 -2.317340
      Read-in Center  387 is at   1.108830  0.706160 -2.317340
      Read-in Center  388 is at   0.976520 -0.356270  2.440790
      Read-in Center  389 is at   2.401730 -0.870090  2.168070
      Read-in Center  390 is at   2.250530 -0.305820  2.168070
      Read-in Center  391 is at   1.837450  0.107260  2.168070
      Read-in Center  392 is at   0.295830 -1.434360  2.168070
      Read-in Center  393 is at   0.708910 -1.847440  2.168070
      Read-in Center  394 is at   1.273180 -1.998640  2.168070
      Read-in Center  395 is at   1.837450 -1.847440  2.168070
      Read-in Center  396 is at   2.250530 -1.434360  2.168070
      Read-in Center  397 is at   0.678750 -2.305160  1.743310
      Read-in Center  398 is at   0.539670 -2.542320  1.208070
      Read-in Center  399 is at   2.714170 -1.991660  1.208070
      Read-in Center  400 is at   0.313180 -2.532860  0.614760
      Read-in Center  401 is at   0.845940 -2.741950  0.614760
      Read-in Center  402 is at   1.416660 -2.784720  0.614760
      Read-in Center  403 is at   1.974630 -2.657370  0.614760
      Read-in Center  404 is at   2.470280 -2.371210  0.614760
      Read-in Center  405 is at   2.859560 -1.951660  0.614760
      Read-in Center  406 is at   3.107880 -1.436020  0.614760
      Read-in Center  407 is at   0.539670 -2.542320  0.021450
      Read-in Center  408 is at  -2.050760  1.221380  2.091770
      Read-in Center  409 is at  -2.892470 -0.236510  2.091770
      Read-in Center  410 is at  -3.775360 -0.822250  0.581630
      Read-in Center  411 is at  -3.580680 -1.378620  0.581630
      Read-in Center  412 is at  -3.767710 -1.098620 -0.019180
      Read-in Center  413 is at  -3.522560 -1.628510 -0.019180
      Read-in Center  414 is at  -3.169240 -2.093300 -0.019180
      Read-in Center  415 is at  -2.724260 -2.471270 -0.019180
      Read-in Center  416 is at  -0.486720 -2.838090 -0.019180
      Read-in Center  417 is at   0.055650 -2.621990 -0.019180
      Read-in Center  418 is at  -3.775360 -0.822250 -0.619990
      Read-in Center  419 is at  -3.580680 -1.378620 -0.619990
      Read-in Center  420 is at  -3.267070 -1.877730 -0.619990
      Read-in Center  421 is at  -2.850270 -2.294530 -0.619990
      Read-in Center  422 is at  -0.066940 -2.608140 -0.619990
      Read-in Center  423 is at  -2.050760  1.221380 -2.130130
      Read-in Center  424 is at  -2.498630  0.845570 -2.130130
      Read-in Center  425 is at  -2.790950  0.339250 -2.130130
      Read-in Center  426 is at  -1.209050  0.934980 -2.451800
      Read-in Center  427 is at  -1.794790  0.778030 -2.451800
      Read-in Center  428 is at   2.147930  2.194150  0.645720
      Read-in Center  429 is at   1.731130  2.610950  0.645720
      Read-in Center  430 is at  -1.052200  2.924560  0.645720
      Read-in Center  431 is at  -1.551310  2.610950  0.645720
      Read-in Center  432 is at   2.239360  2.186900  0.044910
      Read-in Center  433 is at   1.837850  2.610770  0.044910
      Read-in Center  434 is at   1.354610  2.938410  0.044910
      Read-in Center  435 is at   0.812240  3.154510  0.044910
      Read-in Center  436 is at  -0.346900  3.217360  0.044910
      Read-in Center  437 is at  -1.425300  2.787690  0.044910
      Read-in Center  438 is at   2.147930  2.194150 -0.555900
      Read-in Center  439 is at   0.390310  0.032620 -2.587400
      Read-in Center  440 is at   3.295920 -0.262490  1.321510
      Read-in Center  441 is at   3.211910  0.321800  1.321510
      Read-in Center  442 is at   2.580130  1.304870  1.321510
      Read-in Center  443 is at   3.578240 -0.262490  0.783590
      Read-in Center  444 is at   2.939630  1.350470  0.783590
      Read-in Center  445 is at   2.484540  1.726950  0.783590
      Read-in Center  446 is at   3.723630 -0.262490  0.193740
      Read-in Center  447 is at   3.650930  0.336190  0.193740
      Read-in Center  448 is at   3.437080  0.900070  0.193740
      Read-in Center  449 is at   3.094490  1.396400  0.193740
      Read-in Center  450 is at   2.643090  1.796310  0.193740
      Read-in Center  451 is at   3.437080 -1.425050  0.193740
      Read-in Center  452 is at   3.650930 -0.861170  0.193740
      Read-in Center  453 is at   3.723630 -0.262490 -0.413760
      Read-in Center  454 is at   3.650930  0.336190 -0.413760
      Read-in Center  455 is at   3.437080  0.900070 -0.413760
      Read-in Center  456 is at   3.094490  1.396400 -0.413760
      Read-in Center  457 is at   2.643090  1.796310 -0.413760
      Read-in Center  458 is at   0.334910 -2.601550 -0.413760
      Read-in Center  459 is at   0.920460 -2.745880 -0.413760
      Read-in Center  460 is at   2.109090 -2.601550 -0.413760
      Read-in Center  461 is at   2.643090 -2.321290 -0.413760
      Read-in Center  462 is at   3.094490 -1.921380 -0.413760
      Read-in Center  463 is at   3.437080 -1.425050 -0.413760
      Read-in Center  464 is at   3.650930 -0.861170 -0.413760
      Read-in Center  465 is at   3.578240 -0.262490 -1.003610
      Read-in Center  466 is at   2.939630  1.350470 -1.003610
      Read-in Center  467 is at   2.484540  1.726950 -1.003610
      Read-in Center  468 is at   0.218760 -2.394480 -1.003610
      Read-in Center  469 is at   0.780480 -2.577000 -1.003610
      Read-in Center  470 is at   1.369950 -2.614080 -1.003610
      Read-in Center  471 is at   2.484540 -2.251930 -1.003610
      Read-in Center  472 is at   2.939630 -1.875450 -1.003610
      Read-in Center  473 is at   3.295920 -0.262490 -1.541530
      Read-in Center  474 is at   3.211910  0.321800 -1.541530
      Read-in Center  475 is at   2.580130  1.304870 -1.541530
      Read-in Center  476 is at   0.926850 -2.315300 -1.541530
      Read-in Center  477 is at   2.083540 -2.148990 -1.541530
      Read-in Center  478 is at   2.580130 -1.829850 -1.541530
      Read-in Center  479 is at   3.211910 -0.846780 -1.541530
      Read-in Center  480 is at   2.893070 -0.262490 -1.996260
      Read-in Center  481 is at   1.966860  1.233390 -1.996260
      Read-in Center  482 is at   0.764690 -1.869770 -1.996260
      Read-in Center  483 is at   1.966860 -1.758370 -1.996260
      Read-in Center  484 is at   1.825080 -0.262490 -2.556780
      Read-in Center  485 is at   1.523540  0.259790 -2.556780
      Read-in Center  486 is at   0.920460 -0.784770 -2.556780
      Read-in Center  487 is at   1.523540 -0.784770 -2.556780
      Read-in Center  488 is at   1.222000 -0.262490 -2.630010
      Read-in Center  489 is at  -2.371650  0.950880  2.134570
      Read-in Center  490 is at  -1.916760  2.049330  1.476570
      Read-in Center  491 is at  -3.051130  1.726570  1.476570
      Read-in Center  492 is at  -3.455290  1.283230  1.476570
      Read-in Center  493 is at  -3.672000  0.723830  1.476570
      Read-in Center  494 is at  -3.672000  0.123910  1.476570
      Read-in Center  495 is at  -2.067380  2.388680  0.959370
      Read-in Center  496 is at  -3.222260  2.013430  0.959370
      Read-in Center  497 is at  -3.656940  1.578750  0.959370
      Read-in Center  498 is at  -3.936020  1.031030  0.959370
      Read-in Center  499 is at  -4.032190  0.423870  0.959370
      Read-in Center  500 is at  -3.936020 -0.183290  0.959370
      Read-in Center  501 is at  -2.371650  2.540120  0.369470
      Read-in Center  502 is at  -2.955540  2.368680  0.369470
      Read-in Center  503 is at  -3.467480  2.039670  0.369470
      Read-in Center  504 is at  -3.865990  1.579770  0.369470
      Read-in Center  505 is at  -4.118790  1.026220  0.369470
      Read-in Center  506 is at  -4.205390  0.423870  0.369470
      Read-in Center  507 is at  -4.118790 -0.178480  0.369470
      Read-in Center  508 is at  -2.371650  2.540120 -0.245330
      Read-in Center  509 is at  -2.955540  2.368680 -0.245330
      Read-in Center  510 is at  -3.467480  2.039670 -0.245330
      Read-in Center  511 is at  -3.865990  1.579770 -0.245330
      Read-in Center  512 is at  -4.118790  1.026220 -0.245330
      Read-in Center  513 is at  -4.205390  0.423870 -0.245330
      Read-in Center  514 is at  -4.118790 -0.178480 -0.245330
      Read-in Center  515 is at  -2.067380  2.388680 -0.835230
      Read-in Center  516 is at  -3.222260  2.013430 -0.835230
      Read-in Center  517 is at  -3.656940  1.578750 -0.835230
      Read-in Center  518 is at  -3.936020  1.031030 -0.835230
      Read-in Center  519 is at  -4.032190  0.423870 -0.835230
      Read-in Center  520 is at  -3.936020 -0.183290 -0.835230
      Read-in Center  521 is at  -1.916760  2.049330 -1.352430
      Read-in Center  522 is at  -3.051130  1.726570 -1.352430
      Read-in Center  523 is at  -3.455290  1.283230 -1.352430
      Read-in Center  524 is at  -3.672000  0.723830 -1.352430
      Read-in Center  525 is at  -3.672000  0.123910 -1.352430
      Read-in Center  526 is at  -1.267690 -0.957740  2.952470
      Read-in Center  527 is at  -0.659150 -0.957740  2.864970
      Read-in Center  528 is at  -0.963420 -0.430730  2.864970
      Read-in Center  529 is at  -1.571960 -0.430730  2.864970
      Read-in Center  530 is at  -1.876230 -0.957740  2.864970
      Read-in Center  531 is at  -1.571960 -1.484750  2.864970
      Read-in Center  532 is at  -0.963420 -1.484750  2.864970
      Read-in Center  533 is at  -2.872310 -0.657780  2.206970
      Read-in Center  534 is at  -2.872310 -1.257700  2.206970
      Read-in Center  535 is at  -2.655600 -1.817100  2.206970
      Read-in Center  536 is at  -2.251440 -2.260440  2.206970
      Read-in Center  537 is at  -1.117070 -2.583200  2.206970
      Read-in Center  538 is at  -0.540060 -2.419020  2.206970
      Read-in Center  539 is at  -0.061320 -2.057490  2.206970
      Read-in Center  540 is at  -3.232500 -0.957740  1.689770
      Read-in Center  541 is at  -3.136330 -1.564900  1.689770
      Read-in Center  542 is at  -2.857250 -2.112620  1.689770
      Read-in Center  543 is at  -2.422570 -2.547300  1.689770
      Read-in Center  544 is at  -1.267690 -2.922550  1.689770
      Read-in Center  545 is at  -0.660530 -2.826380  1.689770
      Read-in Center  546 is at  -0.112810 -2.547300  1.689770
      Read-in Center  547 is at  -3.066300 -2.113640  1.099870
      Read-in Center  548 is at  -2.667790 -2.573540  1.099870
      Read-in Center  549 is at  -2.155850 -2.902550  1.099870
      Read-in Center  550 is at  -1.571960 -3.073990  1.099870
      Read-in Center  551 is at  -0.963420 -3.073990  1.099870
      Read-in Center  552 is at  -2.667790 -2.573540  0.485070
      Read-in Center  553 is at  -2.155850 -2.902550  0.485070
      Read-in Center  554 is at  -1.571960 -3.073990  0.485070
      Read-in Center  555 is at  -0.963420 -3.073990  0.485070
      Read-in Center  556 is at  -2.164530 -2.722830 -0.648880
      Read-in Center  557 is at  -1.580640 -2.894270 -0.648880
      Read-in Center  558 is at  -0.972100 -2.894270 -0.648880
      Read-in Center  559 is at  -3.327780 -1.380370 -1.263680
      Read-in Center  560 is at  -3.074980 -1.933920 -1.263680
      Read-in Center  561 is at  -2.676470 -2.393820 -1.263680
      Read-in Center  562 is at  -2.164530 -2.722830 -1.263680
      Read-in Center  563 is at  -1.580640 -2.894270 -1.263680
      Read-in Center  564 is at  -0.972100 -2.894270 -1.263680
      Read-in Center  565 is at  -3.241180 -0.778020 -1.853580
      Read-in Center  566 is at  -3.145010 -1.385180 -1.853580
      Read-in Center  567 is at  -2.865930 -1.932900 -1.853580
      Read-in Center  568 is at  -2.431250 -2.367580 -1.853580
      Read-in Center  569 is at  -1.276370 -2.742830 -1.853580
      Read-in Center  570 is at  -0.669210 -2.646660 -1.853580
      Read-in Center  571 is at  -0.121490 -2.367580 -1.853580
      Read-in Center  572 is at  -2.880990 -0.478060 -2.370780
      Read-in Center  573 is at  -2.880990 -1.077980 -2.370780
      Read-in Center  574 is at  -2.664280 -1.637380 -2.370780
      Read-in Center  575 is at  -2.260120 -2.080720 -2.370780
      Read-in Center  576 is at  -1.125750 -2.403480 -2.370780
      Read-in Center  577 is at  -0.548740 -2.239300 -2.370780
      Read-in Center  578 is at  -0.070000 -1.877770 -2.370780
      Read-in Center  579 is at   0.245820 -1.367720 -2.370780
      Read-in Center  580 is at  -0.667830 -0.778020 -3.028780
      Read-in Center  581 is at  -0.972100 -0.251010 -3.028780
      Read-in Center  582 is at  -1.580640 -0.251010 -3.028780
      Read-in Center  583 is at  -1.884910 -0.778020 -3.028780
      Read-in Center  584 is at  -1.580640 -1.305030 -3.028780
      Read-in Center  585 is at  -0.972100 -1.305030 -3.028780
      Read-in Center  586 is at  -1.276370 -0.778020 -3.116280
      Read-in Center  587 is at   0.145550  1.112980  3.136650
      Read-in Center  588 is at   0.754090  1.112980  3.049150
      Read-in Center  589 is at   0.449820  1.639990  3.049150
      Read-in Center  590 is at  -0.158720  1.639990  3.049150
      Read-in Center  591 is at  -0.462990  1.112980  3.049150
      Read-in Center  592 is at  -0.158720  0.585970  3.049150
      Read-in Center  593 is at   0.449820  0.585970  3.049150
      Read-in Center  594 is at   1.777970  1.112980  2.391150
      Read-in Center  595 is at   1.667740  1.702680  2.391150
      Read-in Center  596 is at   1.351920  2.212730  2.391150
      Read-in Center  597 is at   0.873180  2.574260  2.391150
      Read-in Center  598 is at   0.296170  2.738440  2.391150
      Read-in Center  599 is at  -0.838200  2.415680  2.391150
      Read-in Center  600 is at  -1.242360  1.972340  2.391150
      Read-in Center  601 is at  -1.459070  1.412940  2.391150
      Read-in Center  602 is at   1.667740  0.523280  2.391150
      Read-in Center  603 is at   2.110360  1.112980  1.873950
      Read-in Center  604 is at   2.014190  1.720140  1.873950
      Read-in Center  605 is at   1.300430  2.702540  1.873950
      Read-in Center  606 is at   0.752710  2.981620  1.873950
      Read-in Center  607 is at   0.145550  3.077790  1.873950
      Read-in Center  608 is at  -1.009330  2.702540  1.873950
      Read-in Center  609 is at  -1.444010  2.267860  1.873950
      Read-in Center  610 is at  -1.723090  1.720140  1.873950
      Read-in Center  611 is at   2.196960  1.715330  1.284050
      Read-in Center  612 is at   0.449820  3.229230  1.284050
      Read-in Center  613 is at  -0.158720  3.229230  1.284050
      Read-in Center  614 is at  -0.742610  3.057790  1.284050
      Read-in Center  615 is at  -1.254550  2.728780  1.284050
      Read-in Center  616 is at   0.449820  3.229230  0.669250
      Read-in Center  617 is at  -0.158720  3.229230  0.669250
      Read-in Center  618 is at   0.435750  3.386680 -0.456630
      Read-in Center  619 is at  -0.172790  3.386680 -0.456630
      Read-in Center  620 is at  -0.756680  3.215240 -0.456630
      Read-in Center  621 is at  -1.268620  2.886230 -0.456630
      Read-in Center  622 is at   0.435750  3.386680 -1.071430
      Read-in Center  623 is at  -0.172790  3.386680 -1.071430
      Read-in Center  624 is at  -0.756680  3.215240 -1.071430
      Read-in Center  625 is at  -1.268620  2.886230 -1.071430
      Read-in Center  626 is at  -1.667130  2.426330 -1.071430
      Read-in Center  627 is at   2.000120  1.877590 -1.661330
      Read-in Center  628 is at   1.286360  2.859990 -1.661330
      Read-in Center  629 is at   0.738640  3.139070 -1.661330
      Read-in Center  630 is at   0.131480  3.235240 -1.661330
      Read-in Center  631 is at  -1.023400  2.859990 -1.661330
      Read-in Center  632 is at  -1.458080  2.425310 -1.661330
      Read-in Center  633 is at   1.653670  1.860130 -2.178530
      Read-in Center  634 is at   1.337850  2.370180 -2.178530
      Read-in Center  635 is at   0.859110  2.731710 -2.178530
      Read-in Center  636 is at   0.282100  2.895890 -2.178530
      Read-in Center  637 is at  -0.852270  2.573130 -2.178530
      Read-in Center  638 is at  -1.256430  2.129790 -2.178530
      Read-in Center  639 is at  -1.473140  1.570390 -2.178530
      Read-in Center  640 is at   0.740020  1.270430 -2.836530
      Read-in Center  641 is at   0.435750  1.797440 -2.836530
      Read-in Center  642 is at  -0.172790  1.797440 -2.836530
      Read-in Center  643 is at  -0.477060  1.270430 -2.836530
      Read-in Center  644 is at  -0.172790  0.743420 -2.836530
      Read-in Center  645 is at   0.435750  0.743420 -2.836530
      Read-in Center  646 is at   0.131480  1.270430 -2.924030
      Read-in Center  647 is at   1.273180 -0.870090  2.774760
      Read-in Center  648 is at   1.881720 -0.870090  2.687260
      Read-in Center  649 is at   1.577450 -0.343080  2.687260
      Read-in Center  650 is at   0.664640 -0.870090  2.687260
      Read-in Center  651 is at   0.968910 -1.397100  2.687260
      Read-in Center  652 is at   1.577450 -1.397100  2.687260
      Read-in Center  653 is at   2.905600 -0.870090  2.029260
      Read-in Center  654 is at   2.795370 -0.280390  2.029260
      Read-in Center  655 is at   2.479550  0.229660  2.029260
      Read-in Center  656 is at   0.289430 -2.172790  2.029260
      Read-in Center  657 is at   1.423800 -2.495550  2.029260
      Read-in Center  658 is at   2.000810 -2.331370  2.029260
      Read-in Center  659 is at   2.479550 -1.969840  2.029260
      Read-in Center  660 is at   2.795370 -1.459790  2.029260
      Read-in Center  661 is at   3.237990 -0.870090  1.512060
      Read-in Center  662 is at   1.273180 -2.834900  1.512060
      Read-in Center  663 is at   1.880340 -2.738730  1.512060
      Read-in Center  664 is at   2.428060 -2.459650  1.512060
      Read-in Center  665 is at   3.141820 -1.477250  1.512060
      Read-in Center  666 is at   0.385020 -2.814900  0.922160
      Read-in Center  667 is at   0.968910 -2.986340  0.922160
      Read-in Center  668 is at   1.577450 -2.986340  0.922160
      Read-in Center  669 is at   0.385020 -2.814900  0.307360
      Read-in Center  670 is at   0.968910 -2.986340  0.307360
      Read-in Center  671 is at   1.577450 -2.986340  0.307360
      Read-in Center  672 is at  -1.501690  0.270350  2.923180
      Read-in Center  673 is at  -1.783080  0.757730  2.752460
      Read-in Center  674 is at  -2.203290  0.337520  2.752460
      Read-in Center  675 is at  -2.213470  1.093550  2.475230
      Read-in Center  676 is at  -2.626120  0.640900  2.475230
      Read-in Center  677 is at  -2.847380  0.069750  2.475230
      Read-in Center  678 is at  -2.090280  1.693110  2.102140
      Read-in Center  679 is at  -3.330370 -0.236510  2.102140
      Read-in Center  680 is at  -3.630980 -0.833460  1.647530
      Read-in Center  681 is at  -3.835600 -1.121500  1.128870
      Read-in Center  682 is at  -3.583950 -1.665440  1.128870
      Read-in Center  683 is at  -3.441590 -2.153080  0.566090
      Read-in Center  684 is at  -4.151410 -0.821780 -0.019180
      Read-in Center  685 is at  -2.357100 -3.008150 -0.019180
      Read-in Center  686 is at  -1.794320 -3.178870 -0.019180
      Read-in Center  687 is at  -1.209050 -3.236510 -0.019180
      Read-in Center  688 is at  -0.061000 -3.008150 -0.019180
      Read-in Center  689 is at  -1.946560 -3.084940 -0.604450
      Read-in Center  690 is at  -0.187150 -2.995710 -0.604450
      Read-in Center  691 is at  -3.964440 -0.536180 -1.167230
      Read-in Center  692 is at  -3.835600 -1.121500 -1.167230
      Read-in Center  693 is at  -3.703460 -0.236510 -1.685890
      Read-in Center  694 is at  -3.630980 -0.833460 -1.685890
      Read-in Center  695 is at  -2.090280  1.693110 -2.140500
      Read-in Center  696 is at  -2.598220  1.366680 -2.140500
      Read-in Center  697 is at  -2.993620  0.910360 -2.140500
      Read-in Center  698 is at  -3.244440  0.361140 -2.140500
      Read-in Center  699 is at  -3.330370 -0.236510 -2.140500
      Read-in Center  700 is at  -1.665170  1.366580 -2.513590
      Read-in Center  701 is at  -2.213470  1.093550 -2.513590
      Read-in Center  702 is at  -2.626120  0.640900 -2.513590
      Read-in Center  703 is at   0.089910 -0.595120  2.816550
      Read-in Center  704 is at   2.296390  2.230250  1.192960
      Read-in Center  705 is at   1.646310  3.049940  0.630180
      Read-in Center  706 is at   1.111810  3.312130  0.630180
      Read-in Center  707 is at  -0.647600  3.401360  0.630180
      Read-in Center  708 is at   1.756620  3.047340  0.044910
      Read-in Center  709 is at   1.237960  3.324570  0.044910
      Read-in Center  710 is at   0.089910  3.552930  0.044910
      Read-in Center  711 is at  -1.058140  3.324570  0.044910
      Read-in Center  712 is at   2.117100  2.685530 -0.540360
      Read-in Center  713 is at  -1.711120  2.879670 -0.540360
      Read-in Center  714 is at   2.438260  0.846280  2.155240
      Read-in Center  715 is at   3.302810 -0.262490  1.763560
      Read-in Center  716 is at   3.218520  0.323740  1.763560
      Read-in Center  717 is at   2.972480  0.862480  1.763560
      Read-in Center  718 is at   2.584640  1.310080  1.763560
      Read-in Center  719 is at   3.346930  0.905700  1.289990
      Read-in Center  720 is at   2.989650  1.397450  1.289990
      Read-in Center  721 is at   3.818190  0.330070  0.755240
      Read-in Center  722 is at   3.621240  0.892920  0.755240
      Read-in Center  723 is at   2.882330  1.819490  0.755240
      Read-in Center  724 is at   3.621240 -1.417900  0.755240
      Read-in Center  725 is at   3.818190 -0.855050  0.755240
      Read-in Center  726 is at   3.438850 -1.947700  0.182670
      Read-in Center  727 is at   1.372760 -3.043070 -0.402690
      Read-in Center  728 is at   2.526360 -2.722770 -0.402690
      Read-in Center  729 is at   3.818190  0.330070 -0.975260
      Read-in Center  730 is at   3.621240  0.892920 -0.975260
      Read-in Center  731 is at   2.882330  1.819490 -0.975260
      Read-in Center  732 is at   1.814560 -2.858680 -0.975260
      Read-in Center  733 is at   2.377410 -2.661730 -0.975260
      Read-in Center  734 is at   2.882330 -2.344470 -0.975260
      Read-in Center  735 is at   3.621240 -1.417900 -0.975260
      Read-in Center  736 is at   3.818190 -0.855050 -0.975260
      Read-in Center  737 is at   3.346930  0.905700 -1.510010
      Read-in Center  738 is at   2.989650  1.397450 -1.510010
      Read-in Center  739 is at   2.521310  1.784900 -1.510010
      Read-in Center  740 is at   1.374260 -2.682580 -1.510010
      Read-in Center  741 is at   1.971330 -2.568680 -1.510010
      Read-in Center  742 is at   2.521310 -2.309880 -1.510010
      Read-in Center  743 is at   2.989650 -1.922430 -1.510010
      Read-in Center  744 is at   3.346930 -1.430680 -1.510010
      Read-in Center  745 is at   3.302810 -0.262490 -1.983580
      Read-in Center  746 is at   3.218520  0.323740 -1.983580
      Read-in Center  747 is at   2.972480  0.862480 -1.983580
      Read-in Center  748 is at   2.584640  1.310080 -1.983580
      Read-in Center  749 is at   0.925870 -2.322120 -1.983580
      Read-in Center  750 is at   1.518130 -2.322120 -1.983580
      Read-in Center  751 is at   2.086400 -2.155260 -1.983580
      Read-in Center  752 is at   2.584640 -1.835060 -1.983580
      Read-in Center  753 is at   2.972480 -1.387460 -1.983580
      Read-in Center  754 is at   3.218520 -0.848720 -1.983580
      Read-in Center  755 is at   2.756660  0.332040 -2.375260
      Read-in Center  756 is at   2.438260  0.846280 -2.375260
      Read-in Center  757 is at   1.373860 -1.901270 -2.375260
      Read-in Center  758 is at   2.438260 -1.371260 -2.375260
      Read-in Center  759 is at   2.756660 -0.857020 -2.375260
      Read-in Center  760 is at   2.360860 -0.262490 -2.667940
      Read-in Center  761 is at   2.208280  0.306940 -2.667940
      Read-in Center  762 is at   1.791430  0.723790 -2.667940
      Read-in Center  763 is at   0.652570 -1.248770 -2.667940
      Read-in Center  764 is at   1.222000 -1.401350 -2.667940
      Read-in Center  765 is at   1.791430 -1.248770 -2.667940
      Read-in Center  766 is at   2.208280 -0.831920 -2.667940
      Read-in Center  767 is at   0.930920  0.241670 -2.848820
      Read-in Center  768 is at   0.639850 -0.262490 -2.848820
      Read-in Center  769 is at  -2.625050  1.389780  2.187160
      Read-in Center  770 is at  -3.033290  0.981540  2.187160
      Read-in Center  771 is at  -3.182720  0.423870  2.187160
      Read-in Center  772 is at  -2.502910  1.954610  1.858500
      Read-in Center  773 is at  -2.506890  2.349510  1.425430
      Read-in Center  774 is at  -3.054960  2.134410  1.425430
      Read-in Center  775 is at  -3.515280  1.767320  1.425430
      Read-in Center  776 is at  -3.846940 -0.433120  1.425430
      Read-in Center  777 is at  -2.648180  2.591450  0.913120
      Read-in Center  778 is at  -3.654160  2.010650  0.913120
      Read-in Center  779 is at  -1.917780  2.801670  0.351360
      Read-in Center  780 is at  -2.648180  2.591450 -0.788980
      Read-in Center  781 is at  -3.654160  2.010650 -0.788980
      Read-in Center  782 is at  -2.506890  2.349510 -1.301290
      Read-in Center  783 is at  -3.054960  2.134410 -1.301290
      Read-in Center  784 is at  -3.515280  1.767320 -1.301290
      Read-in Center  785 is at  -2.502910  1.954610 -1.734360
      Read-in Center  786 is at  -0.152350 -0.957740  2.917560
      Read-in Center  787 is at  -0.301780 -0.400070  2.917560
      Read-in Center  788 is at  -1.825360  0.008170  2.917560
      Read-in Center  789 is at  -2.233600 -0.400070  2.917560
      Read-in Center  790 is at  -2.383030 -0.957740  2.917560
      Read-in Center  791 is at  -2.233600 -1.515410  2.917560
      Read-in Center  792 is at  -1.825360 -1.923650  2.917560
      Read-in Center  793 is at  -1.267690 -2.073080  2.917560
      Read-in Center  794 is at  -0.710020 -1.923650  2.917560
      Read-in Center  795 is at  -0.301780 -1.515410  2.917560
      Read-in Center  796 is at  -1.703220 -2.488480  2.588900
      Read-in Center  797 is at  -2.715590 -2.301190  2.155830
      Read-in Center  798 is at  -2.255270 -2.668280  2.155830
      Read-in Center  799 is at  -1.707200 -2.883380  2.155830
      Read-in Center  800 is at  -0.036200 -2.501980  2.155830
      Read-in Center  801 is at  -2.854470 -2.544520  1.643520
      Read-in Center  802 is at  -1.848490 -3.125320  1.643520
      Read-in Center  803 is at  -0.531460 -3.223630  1.081760
      Read-in Center  804 is at   0.008920 -2.969350  1.081760
      Read-in Center  805 is at  -0.531460 -3.223630  0.503180
      Read-in Center  806 is at   0.008920 -2.969350  0.503180
      Read-in Center  807 is at  -0.540140 -3.043910 -1.245570
      Read-in Center  808 is at   0.000240 -2.789630 -1.245570
      Read-in Center  809 is at  -2.863150 -2.364800 -1.807330
      Read-in Center  810 is at  -1.857170 -2.945600 -1.807330
      Read-in Center  811 is at   0.310410 -2.364800 -1.807330
      Read-in Center  812 is at  -2.724270 -2.121470 -2.319640
      Read-in Center  813 is at  -2.263950 -2.488560 -2.319640
      Read-in Center  814 is at  -1.715880 -2.703660 -2.319640
      Read-in Center  815 is at  -0.044880 -2.322260 -2.319640
      Read-in Center  816 is at   0.355580 -1.890670 -2.319640
      Read-in Center  817 is at   0.315120 -0.778020 -2.752710
      Read-in Center  818 is at  -2.235460  0.492020 -2.752710
      Read-in Center  819 is at  -2.629490  0.059790 -2.752710
      Read-in Center  820 is at  -1.711900 -2.308760 -2.752710
      Read-in Center  821 is at  -0.161030 -0.778020 -3.081370
      Read-in Center  822 is at  -0.310460 -0.220350 -3.081370
      Read-in Center  823 is at  -0.718700  0.187890 -3.081370
      Read-in Center  824 is at  -1.276370  0.337320 -3.081370
      Read-in Center  825 is at  -1.834040  0.187890 -3.081370
      Read-in Center  826 is at  -2.242280 -0.220350 -3.081370
      Read-in Center  827 is at  -2.391710 -0.778020 -3.081370
      Read-in Center  828 is at  -2.242280 -1.335690 -3.081370
      Read-in Center  829 is at  -1.834040 -1.743930 -3.081370
      Read-in Center  830 is at  -1.276370 -1.893360 -3.081370
      Read-in Center  831 is at  -0.718700 -1.743930 -3.081370
      Read-in Center  832 is at  -0.310460 -1.335690 -3.081370
      Read-in Center  833 is at   1.260890  1.112980  3.101740
      Read-in Center  834 is at   1.111460  1.670650  3.101740
      Read-in Center  835 is at   0.703220  2.078890  3.101740
      Read-in Center  836 is at   0.145550  2.228320  3.101740
      Read-in Center  837 is at  -0.412120  2.078890  3.101740
      Read-in Center  838 is at  -0.820360  1.670650  3.101740
      Read-in Center  839 is at  -0.969790  1.112980  3.101740
      Read-in Center  840 is at  -0.820360  0.555310  3.101740
      Read-in Center  841 is at  -0.412120  0.147070  3.101740
      Read-in Center  842 is at   0.145550 -0.002360  3.101740
      Read-in Center  843 is at   0.703220  0.147070  3.101740
      Read-in Center  844 is at   1.111460  0.555310  3.101740
      Read-in Center  845 is at  -0.289980  2.643720  2.773080
      Read-in Center  846 is at   1.777500  2.225630  2.340010
      Read-in Center  847 is at   1.377040  2.657220  2.340010
      Read-in Center  848 is at  -0.293960  3.038620  2.340010
      Read-in Center  849 is at  -0.842030  2.823520  2.340010
      Read-in Center  850 is at  -1.302350  2.456430  2.340010
      Read-in Center  851 is at   2.088940  2.235000  1.827700
      Read-in Center  852 is at   1.732330  2.699760  1.827700
      Read-in Center  853 is at  -0.435250  3.280560  1.827700
      Read-in Center  854 is at  -1.441230  2.699760  1.827700
      Read-in Center  855 is at   1.882320  2.743910  1.265940
      Read-in Center  856 is at   1.422160  3.124590  1.265940
      Read-in Center  857 is at   0.881780  3.378870  1.265940
      Read-in Center  858 is at   1.408090  3.282040 -0.474740
      Read-in Center  859 is at   0.867710  3.536320 -0.474740
      Read-in Center  860 is at   2.219280  2.418210 -1.053320
      Read-in Center  861 is at   1.868250  2.901360 -1.053320
      Read-in Center  862 is at   1.408090  3.282040 -1.053320
      Read-in Center  863 is at   0.867710  3.536320 -1.053320
      Read-in Center  864 is at   2.074870  2.392450 -1.615080
      Read-in Center  865 is at   1.718260  2.857210 -1.615080
      Read-in Center  866 is at  -0.449320  3.438010 -1.615080
      Read-in Center  867 is at  -1.455300  2.857210 -1.615080
      Read-in Center  868 is at   1.763430  2.383080 -2.127390
      Read-in Center  869 is at   1.362970  2.814670 -2.127390
      Read-in Center  870 is at  -0.308030  3.196070 -2.127390
      Read-in Center  871 is at  -0.856100  2.980970 -2.127390
      Read-in Center  872 is at  -1.316420  2.613880 -2.127390
      Read-in Center  873 is at   1.722970  1.270430 -2.560460
      Read-in Center  874 is at  -0.304050  2.801170 -2.560460
      Read-in Center  875 is at   1.246820  1.270430 -2.889120
      Read-in Center  876 is at   1.097390  1.828100 -2.889120
      Read-in Center  877 is at   0.689150  2.236340 -2.889120
      Read-in Center  878 is at   0.131480  2.385770 -2.889120
      Read-in Center  879 is at  -0.426190  2.236340 -2.889120
      Read-in Center  880 is at  -0.834430  1.828100 -2.889120
      Read-in Center  881 is at  -0.983860  1.270430 -2.889120
      Read-in Center  882 is at  -0.834430  0.712760 -2.889120
      Read-in Center  883 is at   1.097390  0.712760 -2.889120
      Read-in Center  884 is at   0.986000 -0.372680  2.945020
      Read-in Center  885 is at   2.388520 -0.870090  2.739850
      Read-in Center  886 is at   2.239090 -0.312420  2.739850
      Read-in Center  887 is at   1.830850  0.095820  2.739850
      Read-in Center  888 is at   0.307270 -1.427760  2.739850
      Read-in Center  889 is at   0.715510 -1.836000  2.739850
      Read-in Center  890 is at   1.273180 -1.985430  2.739850
      Read-in Center  891 is at   1.830850 -1.836000  2.739850
      Read-in Center  892 is at   2.239090 -1.427760  2.739850
      Read-in Center  893 is at   0.837650 -2.400830  2.411190
      Read-in Center  894 is at   0.833670 -2.795730  1.978120
      Read-in Center  895 is at   2.504670 -2.414330  1.978120
      Read-in Center  896 is at   2.905130 -1.982740  1.978120
      Read-in Center  897 is at   0.151160 -2.813480  1.465810
      Read-in Center  898 is at   0.692380 -3.037670  1.465810
      Read-in Center  899 is at   2.859960 -2.456870  1.465810
      Read-in Center  900 is at   3.216570 -1.992110  1.465810
      Read-in Center  901 is at   2.009410 -3.135980  0.904050
      Read-in Center  902 is at   2.549790 -2.881700  0.904050
      Read-in Center  903 is at   3.009950 -2.501020  0.904050
      Read-in Center  904 is at   3.360980 -2.017870  0.904050
      Read-in Center  905 is at   2.009410 -3.135980  0.325470
      Read-in Center  906 is at   2.549790 -2.881700  0.325470
      Read-in Center  907 is at   3.009950 -2.501020  0.325470
      Read-in Center  908 is at   0.692380 -3.037670 -0.236290
      Read-in Center  909 is at   1.853980 -3.037670 -0.236290
      Read-in Center  910 is at  -3.447980 -0.893920  2.314270
      Read-in Center  911 is at  -3.952900 -0.236510  1.814200
      Read-in Center  912 is at  -3.638610 -1.511640  1.814200
      Read-in Center  913 is at  -4.239980 -0.566140  1.243680
      Read-in Center  914 is at  -4.297210 -1.205430  0.624620
      Read-in Center  915 is at  -4.038950 -1.807230  0.624620
      Read-in Center  916 is at  -3.190190 -2.795930  0.624620
      Read-in Center  917 is at  -4.257850 -1.499370 -0.019180
      Read-in Center  918 is at  -3.952900 -2.069890 -0.019180
      Read-in Center  919 is at  -3.542500 -2.569960 -0.019180
      Read-in Center  920 is at  -3.042430 -2.980360 -0.019180
      Read-in Center  921 is at  -0.565250 -3.473100 -0.019180
      Read-in Center  922 is at  -4.429040 -0.563950 -0.662980
      Read-in Center  923 is at  -4.297210 -1.205430 -0.662980
      Read-in Center  924 is at  -4.038950 -1.807230 -0.662980
      Read-in Center  925 is at  -3.664840 -2.344740 -0.662980
      Read-in Center  926 is at  -3.190190 -2.795930 -0.662980
      Read-in Center  927 is at  -2.634430 -3.142340 -0.662980
      Read-in Center  928 is at  -1.372980 -3.468950 -0.662980
      Read-in Center  929 is at  -0.718940 -3.435780 -0.662980
      Read-in Center  930 is at  -3.821440 -1.808330 -1.282040
      Read-in Center  931 is at  -3.422470 -2.333170 -1.282040
      Read-in Center  932 is at  -2.182030  2.329030 -1.852560
      Read-in Center  933 is at  -1.840480  0.857150 -3.067980
      Read-in Center  934 is at  -1.621040  3.076390  1.307770
      Read-in Center  935 is at   2.746390  2.401890  0.688710
      Read-in Center  936 is at   2.319810  2.898790  0.688710
      Read-in Center  937 is at   0.580020  3.752200  0.688710
      Read-in Center  938 is at  -0.074020  3.785370  0.688710
      Read-in Center  939 is at  -1.335470  3.458760  0.688710
      Read-in Center  940 is at  -1.891230  3.112350  0.688710
      Read-in Center  941 is at   2.833760  2.386310  0.044910
      Read-in Center  942 is at   2.423360  2.886380  0.044910
      Read-in Center  943 is at   0.733710  3.789520  0.044910
      Read-in Center  944 is at  -0.553890  3.789520  0.044910
      Read-in Center  945 is at  -1.743470  3.296780  0.044910
      Read-in Center  946 is at   2.746390  2.401890 -0.598890
      Read-in Center  947 is at   0.411810 -0.004620 -3.191680
      Read-in Center  948 is at   2.910130  0.391490  2.381760
      Read-in Center  949 is at   3.889360 -0.262490  1.429990
      Read-in Center  950 is at   3.805560  0.400860  1.429990
      Read-in Center  951 is at   3.805560 -0.925840  1.429990
      Read-in Center  952 is at   4.151250 -0.262490  0.841760
      Read-in Center  953 is at   3.512180  1.563870  0.841760
      Read-in Center  954 is at   4.285130 -0.262490  0.211940
      Read-in Center  955 is at   4.213510  0.395990  0.211940
      Read-in Center  956 is at   4.002020  1.023680  0.211940
      Read-in Center  957 is at   3.660530  1.591240  0.211940
      Read-in Center  958 is at   3.205030  2.072110  0.211940
      Read-in Center  959 is at   4.002020 -1.548660  0.211940
      Read-in Center  960 is at   4.213510 -0.920970  0.211940
      Read-in Center  961 is at   4.285130 -0.262490 -0.431960
      Read-in Center  962 is at   4.213510  0.395990 -0.431960
      Read-in Center  963 is at   4.002020  1.023680 -0.431960
      Read-in Center  964 is at   3.660530  1.591240 -0.431960
      Read-in Center  965 is at   3.205030  2.072110 -0.431960
      Read-in Center  966 is at   3.205030 -2.597090 -0.431960
      Read-in Center  967 is at   3.660530 -2.116220 -0.431960
      Read-in Center  968 is at   4.002020 -1.548660 -0.431960
      Read-in Center  969 is at   4.213510 -0.920970 -0.431960
      Read-in Center  970 is at   4.151250 -0.262490 -1.061780
      Read-in Center  971 is at   3.512180  1.563870 -1.061780
      Read-in Center  972 is at   0.570180 -3.118300 -1.061780
      Read-in Center  973 is at   1.222000 -3.191740 -1.061780
      Read-in Center  974 is at   3.512180 -2.088850 -1.061780
      Read-in Center  975 is at   3.889360 -0.262490 -1.650010
      Read-in Center  976 is at   3.805560  0.400860 -1.650010
      Read-in Center  977 is at   0.722190 -2.882600 -1.650010
      Read-in Center  978 is at   3.805560 -0.925840 -1.650010
      Read-in Center  979 is at   3.032380 -0.262490 -2.601780
      Read-in Center  980 is at   0.726570 -2.003760 -2.601780
      Read-in Center  981 is at   2.028960 -1.883070 -2.601780
      Read-in Center  982 is at   1.862370 -0.262490 -3.122700
      Read-in Center  983 is at   1.542180  0.292080 -3.122700
      Read-in Center  984 is at   0.901820 -0.817060 -3.122700
      Read-in Center  985 is at   1.542180 -0.817060 -3.122700
      Read-in Center  986 is at   1.222000 -0.262490 -3.190010
      Read-in Center  987 is at  -3.122380  1.820910  2.038140
      Read-in Center  988 is at  -3.555810  1.345470  2.038140
      Read-in Center  989 is at  -3.788220  0.745550  2.038140
      Read-in Center  990 is at  -3.788220  0.102190  2.038140
      Read-in Center  991 is at  -4.024890  1.366560  1.561760
      Read-in Center  992 is at  -4.215790  0.747690  1.561760
      Read-in Center  993 is at  -4.215790  0.100050  1.561760
      Read-in Center  994 is at  -2.067380  2.892310  0.998230
      Read-in Center  995 is at  -3.301600  2.561600  0.998230
      Read-in Center  996 is at  -4.205110  1.658090  0.998230
      Read-in Center  997 is at  -4.451710  1.062750  0.998230
      Read-in Center  998 is at  -4.535820  0.423870  0.998230
      Read-in Center  999 is at  -4.451710 -0.215010  0.998230
      Read-in Center 1000 is at  -2.558460  2.998200  0.380290
      Read-in Center 1001 is at  -3.183240  2.795200  0.380290
      Read-in Center 1002 is at  -3.737910  2.443190  0.380290
      Read-in Center 1003 is at  -4.187610  1.964310  0.380290
      Read-in Center 1004 is at  -4.504090  1.388630  0.380290
      Read-in Center 1005 is at  -4.667470  0.752340  0.380290
      Read-in Center 1006 is at  -4.667470  0.095400  0.380290
      Read-in Center 1007 is at  -4.504090 -0.540890  0.380290
      Read-in Center 1008 is at  -2.558460  2.998200 -0.256150
      Read-in Center 1009 is at  -3.183240  2.795200 -0.256150
      Read-in Center 1010 is at  -3.737910  2.443190 -0.256150
      Read-in Center 1011 is at  -4.187610  1.964310 -0.256150
      Read-in Center 1012 is at  -4.504090  1.388630 -0.256150
      Read-in Center 1013 is at  -4.667470  0.752340 -0.256150
      Read-in Center 1014 is at  -4.667470  0.095400 -0.256150
      Read-in Center 1015 is at  -4.504090 -0.540890 -0.256150
      Read-in Center 1016 is at  -2.067380  2.892310 -0.874090
      Read-in Center 1017 is at  -3.301600  2.561600 -0.874090
      Read-in Center 1018 is at  -4.205110  1.658090 -0.874090
      Read-in Center 1019 is at  -4.451710  1.062750 -0.874090
      Read-in Center 1020 is at  -4.535820  0.423870 -0.874090
      Read-in Center 1021 is at  -4.451710 -0.215010 -0.874090
      Read-in Center 1022 is at  -4.024890  1.366560 -1.437620
      Read-in Center 1023 is at  -4.215790  0.747690 -1.437620
      Read-in Center 1024 is at  -4.215790  0.100050 -1.437620
      Read-in Center 1025 is at  -3.122380  1.820910 -1.914000
      Read-in Center 1026 is at  -3.555810  1.345470 -1.914000
      Read-in Center 1027 is at  -3.788220  0.745550 -1.914000
      Read-in Center 1028 is at  -1.267690 -0.957740  3.432470
      Read-in Center 1029 is at  -0.635900 -0.957740  3.355760
      Read-in Center 1030 is at  -0.951790 -0.410590  3.355760
      Read-in Center 1031 is at  -1.583590 -0.410590  3.355760
      Read-in Center 1032 is at  -1.899480 -0.957740  3.355760
      Read-in Center 1033 is at  -1.583590 -1.504890  3.355760
      Read-in Center 1034 is at  -0.951790 -1.504890  3.355760
      Read-in Center 1035 is at  -2.988530 -0.636060  2.768540
      Read-in Center 1036 is at  -2.988530 -1.279420  2.768540
      Read-in Center 1037 is at  -2.756120 -1.879340  2.768540
      Read-in Center 1038 is at  -2.322690 -2.354780  2.768540
      Read-in Center 1039 is at  -1.106160 -2.700920  2.768540
      Read-in Center 1040 is at  -0.487360 -2.524850  2.768540
      Read-in Center 1041 is at   0.026050 -2.137140  2.768540
      Read-in Center 1042 is at  -3.225200 -1.900430  2.292160
      Read-in Center 1043 is at  -1.105330 -3.124340  2.292160
      Read-in Center 1044 is at  -0.473920 -2.980230  2.292160
      Read-in Center 1045 is at  -3.405420 -2.191960  1.728630
      Read-in Center 1046 is at  -2.501910 -3.095470  1.728630
      Read-in Center 1047 is at  -1.267690 -3.426180  1.728630
      Read-in Center 1048 is at  -0.628810 -3.342070  1.728630
      Read-in Center 1049 is at  -0.033470 -3.095470  1.728630
      Read-in Center 1050 is at  -3.387920 -2.498180  1.110690
      Read-in Center 1051 is at  -2.938220 -2.977060  1.110690
      Read-in Center 1052 is at  -2.383550 -3.329070  1.110690
      Read-in Center 1053 is at  -1.758770 -3.532070  1.110690
      Read-in Center 1054 is at  -1.103130 -3.573320  1.110690
      Read-in Center 1055 is at  -2.383550 -3.329070  0.474250
      Read-in Center 1056 is at  -1.758770 -3.532070  0.474250
      Read-in Center 1057 is at  -1.103130 -3.573320  0.474250
      Read-in Center 1058 is at  -2.946900 -2.797340 -1.274500
      Read-in Center 1059 is at  -2.392230 -3.149350 -1.274500
      Read-in Center 1060 is at  -1.767450 -3.352350 -1.274500
      Read-in Center 1061 is at  -1.111810 -3.393600 -1.274500
      Read-in Center 1062 is at  -3.660700 -1.416900 -1.892440
[...]
    24. (0.00406) RY*( 1) C   2           s(  3.90%)p22.59( 88.07%)d 2.06(  8.03%)
                                            0.0000  0.0264  0.1870 -0.0577  0.0524
                                           -0.7676 -0.0164  0.2409  0.0074  0.4799
                                            0.1501 -0.0300 -0.0973  0.2178 -0.0010
    25. (0.00195) RY*( 2) C   2           s(  4.95%)p 7.28( 35.99%)d11.94( 59.06%)
                                            0.0000  0.0017  0.2224 -0.0023 -0.0037
                                            0.1631 -0.0366 -0.1215  0.0182  0.5629
                                           -0.0938 -0.1519 -0.1009 -0.7262  0.1457
    26. (0.00175) RY*( 3) C   2           s( 10.29%)p 2.44( 25.11%)d 6.28( 64.61%)
                                            0.0000  0.0080  0.3145 -0.0628  0.0133
                                           -0.2970 -0.0197  0.0390 -0.0442 -0.3985
                                            0.0106 -0.3428  0.6480 -0.2667  0.1934
    27. (0.00084) RY*( 4) C   2           s(  3.49%)p 8.63( 30.13%)d19.01( 66.38%)
                                            0.0000  0.0079  0.1748  0.0655  0.0326
                                           -0.2904 -0.0287 -0.3299 -0.0021 -0.3259
                                            0.3127  0.6244 -0.2389 -0.3200  0.1290
    28. (0.00063) RY*( 5) C   2           s(  0.09%)p99.99( 48.72%)d99.99( 51.20%)
                                            0.0000 -0.0019  0.0137  0.0257  0.0196
                                            0.0696 -0.0037 -0.6791  0.0077  0.1438
                                            0.5362 -0.3898  0.0354  0.2624  0.0491
    29. (0.00015) RY*( 6) C   2           s( 43.01%)p 0.79( 33.86%)d 0.54( 23.13%)
                                            0.0000 -0.0010  0.6494 -0.0913  0.0236
                                            0.4328 -0.0316  0.3867 -0.0079  0.0101
                                            0.3720  0.0998 -0.0623  0.2165  0.1794
    30. (0.00008) RY*( 7) C   2           s( 49.11%)p 0.15(  7.60%)d 0.88( 43.29%)
    31. (0.00000) RY*( 8) C   2           s(  0.78%)p26.57( 20.70%)d99.99( 78.52%)
    32. (0.00000) RY*( 9) C   2           s( 83.39%)p 0.07(  5.77%)d 0.13( 10.84%)
    33. (0.00000) RY*(10) C   2           s(  0.87%)p 5.76(  5.01%)d99.99( 94.13%)
    34. (0.00229) RY*( 1) O   3           s(  2.11%)p45.15( 95.40%)d 1.18(  2.49%)
                                            0.0000 -0.0015  0.1451  0.0078  0.0049
                                            0.5450  0.0044  0.5494  0.0051  0.5958
                                           -0.0482 -0.0507  0.0971 -0.0966  0.0355
    35. (0.00154) RY*( 2) O   3           s(  8.71%)p 9.37( 81.55%)d 1.12(  9.75%)
                                            0.0000  0.0032  0.2950 -0.0035 -0.0032
                                           -0.4371 -0.0034 -0.3970  0.0066  0.6832
                                            0.0738 -0.1083  0.2247  0.1715 -0.0199
    36. (0.00050) RY*( 3) O   3           s( 64.16%)p 0.50( 32.00%)d 0.06(  3.84%)
                                            0.0000 -0.0062  0.7918  0.1212  0.0073
                                            0.3915 -0.0040 -0.2918  0.0031 -0.2854
                                           -0.1411 -0.0798  0.0110  0.0884 -0.0650
    37. (0.00003) RY*( 4) O   3           s(  7.08%)p 9.18( 64.98%)d 3.95( 27.94%)
    38. (0.00000) RY*( 5) O   3           s( 99.67%)p 0.00(  0.26%)d 0.00(  0.07%)
    39. (0.00000) RY*( 6) O   3           s(  5.72%)p 1.36(  7.78%)d15.11( 86.50%)
    40. (0.00000) RY*( 7) O   3           s(  4.42%)p 0.98(  4.32%)d20.64( 91.26%)
    41. (0.00000) RY*( 8) O   3           s(  2.13%)p 2.59(  5.52%)d43.35( 92.35%)
    42. (0.00000) RY*( 9) O   3           s(  4.98%)p 1.41(  7.00%)d17.68( 88.02%)
    43. (0.00000) RY*(10) O   3           s(  1.03%)p 1.59(  1.63%)d94.96( 97.35%)
    44. (0.00079) RY*( 1) H   4           s(100.00%)
                                           -0.0002  1.0000
    45. (0.00106) RY*( 1) H   5           s(100.00%)
                                           -0.0010  1.0000
    46. (0.00126) RY*( 1) H   6           s(100.00%)
                                           -0.0013  1.0000
    47. (0.00155) RY*( 1) H   7           s(100.00%)
                                           -0.0037  1.0000
    48. (0.00125) RY*( 1) H   8           s(100.00%)
                                           -0.0028  1.0000
    49. (0.00134) RY*( 1) H   9           s(100.00%)
                                            0.0038  1.0000
    50. (0.01587) BD*( 1) C   1 - C   2  
                ( 48.83%)   0.6988* C   1 s( 27.95%)p 2.57( 71.95%)d 0.00(  0.11%)
                                           -0.0002 -0.5285  0.0131 -0.0011 -0.7232
                                           -0.0141 -0.4412 -0.0044 -0.0402  0.0000
                                           -0.0252 -0.0031 -0.0014 -0.0129  0.0160
                ( 51.17%)  -0.7153* C   2 s( 29.11%)p 2.43( 70.77%)d 0.00(  0.13%)
                                           -0.0002 -0.5394  0.0078 -0.0017  0.7024
                                            0.0119  0.4616 -0.0042  0.0335  0.0012
                                           -0.0288 -0.0020  0.0004 -0.0133  0.0156
    51. (0.00464) BD*( 1) C   1 - H   4  
                ( 39.19%)   0.6261* C   1 s( 24.07%)p 3.15( 75.81%)d 0.01(  0.12%)
                                            0.0000 -0.4906 -0.0035  0.0004  0.6860
                                            0.0058 -0.5322  0.0134 -0.0643  0.0018
                                            0.0295  0.0042 -0.0032 -0.0059  0.0173
                ( 60.81%)  -0.7798* H   4 s(100.00%)
                                           -1.0000 -0.0002
    52. (0.00674) BD*( 1) C   1 - H   5  
                ( 39.67%)   0.6298* C   1 s( 23.71%)p 3.21( 76.17%)d 0.01(  0.13%)
                                            0.0000 -0.4869 -0.0040  0.0004  0.0390
                                            0.0147  0.5774  0.0011 -0.6530  0.0082
                                           -0.0009  0.0014  0.0305  0.0126 -0.0127
                ( 60.33%)  -0.7767* H   5 s(100.00%)
                                           -1.0000 -0.0010
    53. (0.00656) BD*( 1) C   1 - H   6  
                ( 38.80%)   0.6229* C   1 s( 24.29%)p 3.11( 75.59%)d 0.00(  0.12%)
                                            0.0000 -0.4928 -0.0036  0.0002  0.0538
                                            0.0105  0.4322  0.0020  0.7524 -0.0083
                                           -0.0011 -0.0025 -0.0257  0.0071 -0.0219
                ( 61.20%)  -0.7823* H   6 s(100.00%)
                                           -1.0000 -0.0013
    54. (0.01141) BD*( 1) C   2 - O   3  
                ( 68.04%)   0.8249* C   2 s( 21.06%)p 3.73( 78.54%)d 0.02(  0.40%)
                                            0.0000  0.4572 -0.0395 -0.0031  0.7030
                                            0.0462 -0.5330 -0.0126 -0.0679 -0.0132
                                           -0.0529 -0.0062  0.0044  0.0141 -0.0309
                ( 31.96%)  -0.5653* O   3 s( 32.96%)p 2.03( 66.92%)d 0.00(  0.12%)
                                            0.0000  0.5741  0.0017  0.0009 -0.6560
                                            0.0032  0.4777  0.0052  0.1032 -0.0072
                                           -0.0220 -0.0182  0.0071  0.0158 -0.0100
    55. (0.02092) BD*( 1) C   2 - H   7  
                ( 40.83%)   0.6390* C   2 s( 25.05%)p 2.99( 74.80%)d 0.01(  0.16%)
                                            0.0000 -0.5002 -0.0177  0.0001 -0.0695
                                           -0.0076 -0.4230 -0.0044 -0.7508  0.0196
                                           -0.0027 -0.0019 -0.0283  0.0099 -0.0254
                ( 59.17%)  -0.7692* H   7 s(100.00%)
                                           -1.0000 -0.0037
    56. (0.01508) BD*( 1) C   2 - H   8  
                ( 39.84%)   0.6312* C   2 s( 24.91%)p 3.01( 74.94%)d 0.01(  0.15%)
                                            0.0001 -0.4990 -0.0104 -0.0001 -0.0421
                                           -0.0136 -0.5651  0.0084  0.6540 -0.0184
                                           -0.0033  0.0009  0.0325  0.0148 -0.0148
                ( 60.16%)  -0.7756* H   8 s(100.00%)
                                           -1.0000 -0.0028
    57. (0.00647) BD*( 1) O   3 - H   9  
                ( 26.16%)   0.5115* O   3 s( 22.06%)p 3.53( 77.79%)d 0.01(  0.15%)
                                           -0.0001  0.4694 -0.0171  0.0015  0.0880
                                            0.0225 -0.5834 -0.0242  0.6547  0.0069
                                            0.0064 -0.0094 -0.0292 -0.0083  0.0217
                ( 73.84%)  -0.8593* H   9 s(100.00%)
                                            1.0000 -0.0038


 NHO Directionality and "Bond Bending" (deviations from line of nuclear centers)

         [Thresholds for printing:  angular deviation  >  1.0 degree]
                                    hybrid p-character > 25.0%
                                    orbital occupancy  >  0.10e

                                Line of Centers        Hybrid 1              Hybrid 2
                                ---------------  -------------------   ------------------
                NBO               Theta   Phi    Theta   Phi    Dev    Theta   Phi    Dev
 ========================================================================================
     1. BD (   1) C   1 - C   2    87.6   31.3     --     --    --      92.3  212.6   1.3
     5. BD (   1) C   2 - O   3    96.3  324.2    95.0  323.9   1.4      --     --    --
     6. BD (   1) C   2 - H   7    31.1   84.3    30.7   79.8   2.4      --     --    --
     7. BD (   1) C   2 - H   8   138.4   86.7   138.6   84.3   1.6      --     --    --
     8. BD (   1) O   3 - H   9    40.1  274.8    43.0  280.3   4.7      --     --    --
    12. LP (   1) O   3             --     --    140.3  355.8   --       --     --    --
    13. LP (   2) O   3             --     --     61.2   48.5   --       --     --    --


 Second Order Perturbation Theory Analysis of Fock Matrix in NBO Basis

     Threshold for printing:   0.50 kcal/mol
                                                                              E(2)  E(j)-E(i) F(i,j)
         Donor NBO (i)                     Acceptor NBO (j)                 kcal/mol   a.u.    a.u. 
 ===================================================================================================

 within unit  1
   1. BD (   1) C   1 - C   2        / 34. RY*(   1) O   3                    1.17    2.11    0.044
   1. BD (   1) C   1 - C   2        / 51. BD*(   1) C   1 - H   4            0.58    1.53    0.027
   1. BD (   1) C   1 - C   2        / 52. BD*(   1) C   1 - H   5            0.51    1.52    0.025
   1. BD (   1) C   1 - C   2        / 53. BD*(   1) C   1 - H   6            0.56    1.54    0.026
   1. BD (   1) C   1 - C   2        / 56. BD*(   1) C   2 - H   8            0.55    1.56    0.026
   2. BD (   1) C   1 - H   4        / 54. BD*(   1) C   2 - O   3            5.53    1.28    0.075
   3. BD (   1) C   1 - H   5        / 56. BD*(   1) C   2 - H   8            3.34    1.43    0.062
   4. BD (   1) C   1 - H   6        / 24. RY*(   1) C   2                    0.92    1.65    0.035
   4. BD (   1) C   1 - H   6        / 54. BD*(   1) C   2 - O   3            0.56    1.28    0.024
   4. BD (   1) C   1 - H   6        / 55. BD*(   1) C   2 - H   7            3.49    1.41    0.063
   5. BD (   1) C   2 - O   3        / 51. BD*(   1) C   1 - H   4            1.49    1.80    0.046
   6. BD (   1) C   2 - H   7        / 15. RY*(   2) C   1                    1.00    1.88    0.039
   6. BD (   1) C   2 - H   7        / 34. RY*(   1) O   3                    1.02    1.99    0.040
   6. BD (   1) C   2 - H   7        / 53. BD*(   1) C   1 - H   6            3.76    1.42    0.065
   7. BD (   1) C   2 - H   8        / 14. RY*(   1) C   1                    0.78    1.64    0.032
   7. BD (   1) C   2 - H   8        / 35. RY*(   2) O   3                    1.44    2.17    0.050
   7. BD (   1) C   2 - H   8        / 52. BD*(   1) C   1 - H   5            3.94    1.40    0.066
   7. BD (   1) C   2 - H   8        / 57. BD*(   1) O   3 - H   9            4.11    1.47    0.070
   8. BD (   1) O   3 - H   9        / 24. RY*(   1) C   2                    2.00    1.92    0.055
   8. BD (   1) O   3 - H   9        / 27. RY*(   4) C   2                    0.52    2.82    0.034
   8. BD (   1) O   3 - H   9        / 56. BD*(   1) C   2 - H   8            3.45    1.69    0.068
   9. CR (   1) C   1                / 29. RY*(   6) C   2                    0.87   12.56    0.094
  10. CR (   1) C   2                / 16. RY*(   3) C   1                    1.14   12.24    0.105
  10. CR (   1) C   2                / 54. BD*(   1) C   2 - O   3            1.14   11.75    0.104
  11. CR (   1) O   3                / 24. RY*(   1) C   2                    1.89   21.33    0.179
  12. LP (   1) O   3                / 24. RY*(   1) C   2                    2.53    1.78    0.060
  12. LP (   1) O   3                / 26. RY*(   3) C   2                    0.81    2.81    0.043
  12. LP (   1) O   3                / 50. BD*(   1) C   1 - C   2            1.38    1.47    0.040
  12. LP (   1) O   3                / 55. BD*(   1) C   2 - H   7            2.34    1.54    0.054
  12. LP (   1) O   3                / 56. BD*(   1) C   2 - H   8            2.29    1.56    0.053
  13. LP (   2) O   3                / 24. RY*(   1) C   2                    0.52    1.46    0.025
  13. LP (   2) O   3                / 25. RY*(   2) C   2                    0.94    2.33    0.042
  13. LP (   2) O   3                / 26. RY*(   3) C   2                    0.78    2.49    0.040
  13. LP (   2) O   3                / 50. BD*(   1) C   1 - C   2            8.80    1.14    0.090
  13. LP (   2) O   3                / 51. BD*(   1) C   1 - H   4            1.01    1.21    0.031
  13. LP (   2) O   3                / 55. BD*(   1) C   2 - H   7            7.35    1.21    0.084


 Natural Bond Orbitals (Summary):

                                                            Principal Delocalizations
           NBO                        Occupancy    Energy   (geminal,vicinal,remote)
 ====================================================================================
 Molecular unit  1  (C2H6O)
     1. BD (   1) C   1 - C   2          1.99648    -0.80612  34(v),51(g),53(g),56(g)
                                                    52(g)
     2. BD (   1) C   1 - H   4          1.98886    -0.67815  54(v)
     3. BD (   1) C   1 - H   5          1.99168    -0.67841  56(v)
     4. BD (   1) C   1 - H   6          1.99153    -0.67522  55(v),24(v),54(v)
     5. BD (   1) C   2 - O   3          1.99723    -1.07356  51(v)
     6. BD (   1) C   2 - H   7          1.99083    -0.68775  53(v),34(v),15(v)
     7. BD (   1) C   2 - H   8          1.98389    -0.68346  57(v),52(v),35(v),14(v)
     8. BD (   1) O   3 - H   9          1.99174    -0.94082  56(v),24(v),27(v)
     9. CR (   1) C   1                  1.99948   -11.07584  29(v)
    10. CR (   1) C   2                  1.99934   -11.14404  54(g),16(v)
    11. CR (   1) O   3                  1.99984   -20.35503  24(v)
    12. LP (   1) O   3                  1.98610    -0.80812  24(v),55(v),56(v),50(v)
                                                    26(v)
    13. LP (   2) O   3                  1.97084    -0.48008  50(v),55(v),51(r),25(v)
                                                    26(v),24(v)
    14. RY*(   1) C   1                  0.00149     0.95167   
    15. RY*(   2) C   1                  0.00128     1.19453   
    16. RY*(   3) C   1                  0.00034     1.09603   
    17. RY*(   4) C   1                  0.00017     1.47641   
    18. RY*(   5) C   1                  0.00010     2.24746   
    19. RY*(   6) C   1                  0.00000     4.53586   
    20. RY*(   7) C   1                  0.00000     2.04138   
    21. RY*(   8) C   1                  0.00001     2.20291   
    22. RY*(   9) C   1                  0.00000     2.29517   
    23. RY*(  10) C   1                  0.00000     2.28605   
    24. RY*(   1) C   2                  0.00406     0.97518   
    25. RY*(   2) C   2                  0.00195     1.84571   
    26. RY*(   3) C   2                  0.00175     2.00558   
    27. RY*(   4) C   2                  0.00084     1.87568   
    28. RY*(   5) C   2                  0.00063     1.61298   
    29. RY*(   6) C   2                  0.00015     1.48038   
    30. RY*(   7) C   2                  0.00008     2.38687   
    31. RY*(   8) C   2                  0.00000     2.03278   
    32. RY*(   9) C   2                  0.00000     4.13163   
    33. RY*(  10) C   2                  0.00000     2.27698   
    34. RY*(   1) O   3                  0.00229     1.30659   
    35. RY*(   2) O   3                  0.00154     1.48837   
    36. RY*(   3) O   3                  0.00050     1.82509   
    37. RY*(   4) O   3                  0.00003     1.72911   
    38. RY*(   5) O   3                  0.00000     4.08029   
    39. RY*(   6) O   3                  0.00000     2.45123   
    40. RY*(   7) O   3                  0.00000     2.13980   
    41. RY*(   8) O   3                  0.00000     2.51444   
    42. RY*(   9) O   3                  0.00000     2.25233   
    43. RY*(  10) O   3                  0.00000     2.29651   
    44. RY*(   1) H   4                  0.00079     0.81314   
    45. RY*(   1) H   5                  0.00106     0.81963   
    46. RY*(   1) H   6                  0.00126     0.81643   
    47. RY*(   1) H   7                  0.00155     0.79516   
    48. RY*(   1) H   8                  0.00125     0.78856   
    49. RY*(   1) H   9                  0.00134     0.75253   
    50. BD*(   1) C   1 - C   2          0.01587     0.65718   
    51. BD*(   1) C   1 - H   4          0.00464     0.72536   
    52. BD*(   1) C   1 - H   5          0.00674     0.71554   
    53. BD*(   1) C   1 - H   6          0.00656     0.73417   
    54. BD*(   1) C   2 - O   3          0.01141     0.60173   
    55. BD*(   1) C   2 - H   7          0.02092     0.73045   
    56. BD*(   1) C   2 - H   8          0.01508     0.75332   
    57. BD*(   1) O   3 - H   9          0.00647     0.78584   
       -------------------------------
              Total Lewis   25.88784  ( 99.5686%)
        Valence non-Lewis    0.08768  (  0.3372%)
        Rydberg non-Lewis    0.02448  (  0.0942%)
       -------------------------------
            Total unit  1   26.00000  (100.0000%)
           Charge unit  1    0.00000
 1\1\GINC-BLOGIN2\SP\RHF\6-31G(d)\C2H6O1\RUPAKHETIC\23-Jun-2017\0\\#HF/
 6-31G* nosymm scf=tight pop=nbo prop=(read,field)\\Mol\\0,1\C,0,-1.209
 05,-0.23651,-0.01918\C,0,0.08991,0.55293,0.04491\O,0,1.222,-0.26249,-0
 .11001\H,0,-2.06738,0.42387,0.06207\H,0,-1.26769,-0.95774,0.79247\H,0,
 -1.27637,-0.77802,-0.95628\H,0,0.14555,1.11298,0.97665\H,0,0.13148,1.2
 7043,-0.76403\H,0,1.27318,-0.87009,0.61476\\Version=EM64L-G09RevA.02\H
 F=-154.0755757\RMSD=3.747e-09\Dipole=-0.4839584,-0.0527373,0.5263274\Q
 uadrupole=-1.7489127,1.0639663,0.6849464,-0.7777135,1.5302258,-1.11539
 7\PG=C01 [X(C2H6O1)]\\@


 IT IS A PROFOUNDLY ERRONEOUS TRUISM ... THAT WE SHOULD CULTIVATE
 THE HABIT OF THINKING OF WHAT WE ARE DOING.
 THE PRECISE OPPOSITE IS THE CASE.
 CIVILIZATION ADVANCES BY EXTENDING THE NUMBER OF IMPORTANT OPERATIONS
 WHICH WE CAN PERFORM WITHOUT THINKING ABOUT THEM.

                                    -- ALFRED NORTH WHITEHEAD
 Job cpu time:  0 days  0 hours  0 minutes  7.2 seconds.
 File lengths (MBytes):  RWF=     62 Int=      0 D2E=      0 Chk=      2 Scr=      2
 Normal termination of Gaussian 09 at Fri Jun 23 12:04:59 2017.
