 Entering Gaussian System, Link 0=/homes/huanglei/prog/g09/g09
 Initial command:
 /homes/huanglei/prog/g09/l1.exe /scratch/1664303.bmgt1.lcrc.anl.gov/Gau-99618.inp -scrdir=/scratch/1664303.bmgt1.lcrc.anl.gov/
 Entering Link 1 = /homes/huanglei/prog/g09/l1.exe PID=     99619.
  
 Copyright (c) 1988,1990,1992,1993,1995,1998,2003,2009, Gaussian, Inc.
                  All Rights Reserved.
  
 This is part of the Gaussian(R) 09 program.  It is based on
 the Gaussian(R) 03 system (copyright 2003, Gaussian, Inc.),
 the Gaussian(R) 98 system (copyright 1998, Gaussian, Inc.),
 the Gaussian(R) 94 system (copyright 1995, Gaussian, Inc.),
 the Gaussian 92(TM) system (copyright 1992, Gaussian, Inc.),
 the Gaussian 90(TM) system (copyright 1990, Gaussian, Inc.),
 the Gaussian 88(TM) system (copyright 1988, Gaussian, Inc.),
 the Gaussian 86(TM) system (copyright 1986, Carnegie Mellon
 University), and the Gaussian 82(TM) system (copyright 1983,
 Carnegie Mellon University). Gaussian is a federally registered
 trademark of Gaussian, Inc.
  
 This software contains proprietary and confidential information,
 including trade secrets, belonging to Gaussian, Inc.
  
 This software is provided under written license and may be
 used, copied, transmitted, or stored only in accord with that
 written license.
  
 The following legend is applicable only to US Government
 contracts under FAR:
  
                    RESTRICTED RIGHTS LEGEND
  
 Use, reproduction and disclosure by the US Government is
 subject to restrictions as set forth in subparagraphs (a)
 and (c) of the Commercial Computer Software - Restricted
 Rights clause in FAR 52.227-19.
  
 Gaussian, Inc.
 340 Quinnipiac St., Bldg. 40, Wallingford CT 06492
  
  
 ---------------------------------------------------------------
 Warning -- This program may not be used in any manner that
 competes with the business of Gaussian, Inc. or will provide
 assistance to any competitor of Gaussian, Inc.  The licensee
 of this program is prohibited from giving any competitor of
 Gaussian, Inc. access to this program.  By using this program,
 the user acknowledges that Gaussian, Inc. is engaged in the
 business of creating and licensing software in the field of
 computational chemistry and represents and warrants to the
 licensee that it is not a competitor of Gaussian, Inc. and that
 it will not use this program in any manner prohibited above.
 ---------------------------------------------------------------
  

 Cite this work as:
 Gaussian 09, Revision A.02,
 M. J. Frisch, G. W. Trucks, H. B. Schlegel, G. E. Scuseria, 
 M. A. Robb, J. R. Cheeseman, G. Scalmani, V. Barone, B. Mennucci, 
 G. A. Petersson, H. Nakatsuji, M. Caricato, X. Li, H. P. Hratchian, 
 A. F. Izmaylov, J. Bloino, G. Zheng, J. L. Sonnenberg, M. Hada, 
 M. Ehara, K. Toyota, R. Fukuda, J. Hasegawa, M. Ishida, T. Nakajima, 
 Y. Honda, O. Kitao, H. Nakai, T. Vreven, J. A. Montgomery, Jr., 
 J. E. Peralta, F. Ogliaro, M. Bearpark, J. J. Heyd, E. Brothers, 
 K. N. Kudin, V. N. Staroverov, R. Kobayashi, J. Normand, 
 K. Raghavachari, A. Rendell, J. C. Burant, S. S. Iyengar, J. Tomasi, 
 M. Cossi, N. Rega, J. M. Millam, M. Klene, J. E. Knox, J. B. Cross, 
 V. Bakken, C. Adamo, J. Jaramillo, R. Gomperts, R. E. Stratmann, 
 O. Yazyev, A. J. Austin, R. Cammi, C. Pomelli, J. W. Ochterski, 
 R. L. Martin, K. Morokuma, V. G. Zakrzewski, G. A. Voth, 
 P. Salvador, J. J. Dannenberg, S. Dapprich, A. D. Daniels, 
 O. Farkas, J. B. Foresman, J. V. Ortiz, J. Cioslowski, 
 and D. J. Fox, Gaussian, Inc., Wallingford CT, 2009.
 
 ******************************************
 Gaussian 09:  EM64L-G09RevA.02 11-Jun-2009
                29-Jun-2017 
 ******************************************
 %mem=1GB
 %nproc=8
 Will use up to    8 processors via shared memory.
 ---------------------------
 #HF/6-31G* nosymm SCF=Tight
 ---------------------------
 1/38=1/1;
 2/12=2,15=1,17=6,18=5,40=1/2;
 3/5=1,6=6,7=1,11=9,16=1,25=1,30=1/1,2,3;
 4//1;
 5/5=2,32=2,38=5/2;
 6/7=2,8=2,9=2,10=2,28=1/1;
 99/5=1,9=1/99;
 ---
 Mol
 ---
 Symbolic Z-matrix:
 Charge =  0 Multiplicity = 1
 C                    -1.20905  -0.23651  -0.01918 
 C                     0.08991   0.55293   0.04491 
 O                     1.222    -0.26249  -0.11001 
 H                    -2.06738   0.42387   0.06207 
 H                    -1.26769  -0.95774   0.79247 
 H                    -1.27637  -0.77802  -0.95628 
 H                     0.14555   1.11298   0.97665 
 H                     0.13148   1.27043  -0.76403 
 H                     1.27318  -0.87009   0.61476 
 
                          Input orientation:                          
 ---------------------------------------------------------------------
 Center     Atomic      Atomic             Coordinates (Angstroms)
 Number     Number       Type             X           Y           Z
 ---------------------------------------------------------------------
      1          6           0       -1.209050   -0.236510   -0.019180
      2          6           0        0.089910    0.552930    0.044910
      3          8           0        1.222000   -0.262490   -0.110010
      4          1           0       -2.067380    0.423870    0.062070
      5          1           0       -1.267690   -0.957740    0.792470
      6          1           0       -1.276370   -0.778020   -0.956280
      7          1           0        0.145550    1.112980    0.976650
      8          1           0        0.131480    1.270430   -0.764030
      9          1           0        1.273180   -0.870090    0.614760
 ---------------------------------------------------------------------
                    Distance matrix (angstroms):
                    1          2          3          4          5
     1  C    0.000000
     2  C    1.521388   0.000000
     3  O    2.432885   1.403758   0.000000
     4  H    1.086017   2.161215   3.364628   0.000000
     5  H    1.087376   2.164266   2.737955   1.755515   0.000000
     6  H    1.084399   2.154189   2.687712   1.762746   1.757982
     7  H    2.155862   1.088527   2.057059   2.491664   2.513772
     8  H    2.150044   1.082090   1.991688   2.496816   3.056977
     9  H    2.639085   1.936451   0.947148   3.624795   2.548585
                    6          7          8          9
     6  H    0.000000
     7  H    3.055152   0.000000
     8  H    2.493020   1.747843   0.000000
     9  H    2.996139   2.309779   2.790406   0.000000
 Symmetry turned off by external request.
 Stoichiometry    C2H6O
 Framework group  C1[X(C2H6O)]
 Deg. of freedom    21
 Full point group                 C1      NOp   1
 Rotational constants (GHZ):     34.9218739      9.3155266      8.2312740
 Standard basis: 6-31G(d) (6D, 7F)
 Integral buffers will be    131072 words long.
 Raffenetti 1 integral format.
 Two-electron integral symmetry is turned off.
    57 basis functions,   108 primitive gaussians,    57 cartesian basis functions
    13 alpha electrons       13 beta electrons
       nuclear repulsion energy        82.2621243487 Hartrees.
 NAtoms=    9 NActive=    9 NUniq=    9 SFac= 7.50D-01 NAtFMM=   80 NAOKFM=F Big=F
 One-electron integrals computed using PRISM.
 NBasis=    57 RedAO= T  NBF=    57
 NBsUse=    57 1.00D-06 NBFU=    57
 Harris functional with IExCor=  205 diagonalized for initial guess.
 ExpMin= 1.61D-01 ExpMax= 5.48D+03 ExpMxC= 8.25D+02 IAcc=1 IRadAn=         1 AccDes= 0.00D+00
 HarFok:  IExCor=  205 AccDes= 0.00D+00 IRadAn=         1 IDoV= 1
 ScaDFX=  1.000000  1.000000  1.000000  1.000000
 FoFCou: FMM=F IPFlag=           0 FMFlag=      100000 FMFlg1=           0
         NFxFlg=           0 DoJE=T BraDBF=F KetDBF=T FulRan=T
         Omega=  0.000000  0.000000  1.000000  0.000000  0.000000 ICntrl=     500 IOpCl=  0
         NMat0=    1 NMatS0=    1 NMatT0=    0 NMatD0=    1 NMtDS0=    0 NMtDT0=    0
         I1Cent=           4 NGrid=           0.
 Symmetry not used in FoFCou.
 Requested convergence on RMS density matrix=1.00D-08 within 128 cycles.
 Requested convergence on MAX density matrix=1.00D-06.
 Requested convergence on             energy=1.00D-06.
 No special actions if energy rises.
 Keep R1 ints in memory in canonical form, NReq=2215754.
 SCF Done:  E(RHF) =  -154.075575741     A.U. after   12 cycles
             Convg  =    0.3747D-08             -V/T =  2.0012

 **********************************************************************

            Population analysis using the SCF density.

 **********************************************************************

 Alpha  occ. eigenvalues --  -20.55338 -11.27062 -11.21497  -1.36050  -1.01212
 Alpha  occ. eigenvalues --   -0.85066  -0.68995  -0.62473  -0.60497  -0.54446
 Alpha  occ. eigenvalues --   -0.52667  -0.47743  -0.43623
 Alpha virt. eigenvalues --    0.22323   0.27278   0.29762   0.31192   0.31980
 Alpha virt. eigenvalues --    0.34305   0.40734   0.42497   0.72898   0.74882
 Alpha virt. eigenvalues --    0.79045   0.81836   0.89763   0.91717   1.07789
 Alpha virt. eigenvalues --    1.14073   1.16313   1.18499   1.18638   1.20648
 Alpha virt. eigenvalues --    1.23894   1.28667   1.30327   1.42791   1.61459
 Alpha virt. eigenvalues --    1.72228   1.79135   1.84432   2.03818   2.10744
 Alpha virt. eigenvalues --    2.21874   2.27877   2.44772   2.46885   2.56253
 Alpha virt. eigenvalues --    2.63791   2.71408   2.76723   2.88820   3.00098
 Alpha virt. eigenvalues --    3.19635   4.16285   4.60103   4.82220
          Condensed to atoms (all electrons):
              1          2          3          4          5          6
     1  C    5.163474   0.347017  -0.053274   0.374809   0.386387   0.388383
     2  C    0.347017   4.740659   0.220362  -0.032525  -0.035727  -0.034552
     3  O   -0.053274   0.220362   8.378970   0.003295  -0.000557   0.001938
     4  H    0.374809  -0.032525   0.003295   0.545271  -0.026608  -0.023868
     5  H    0.386387  -0.035727  -0.000557  -0.026608   0.553568  -0.029506
     6  H    0.388383  -0.034552   0.001938  -0.023868  -0.029506   0.520454
     7  H   -0.055078   0.401538  -0.038795   0.001093  -0.004456   0.004771
     8  H   -0.045470   0.410439  -0.039106  -0.000727   0.004298  -0.004465
     9  H   -0.003517  -0.026128   0.261089  -0.000053   0.003336  -0.000410
              7          8          9
     1  C   -0.055078  -0.045470  -0.003517
     2  C    0.401538   0.410439  -0.026128
     3  O   -0.038795  -0.039106   0.261089
     4  H    0.001093  -0.000727  -0.000053
     5  H   -0.004456   0.004298   0.003336
     6  H    0.004771  -0.004465  -0.000410
     7  H    0.595776  -0.038729  -0.004915
     8  H   -0.038729   0.537958   0.005975
     9  H   -0.004915   0.005975   0.331341
 Mulliken atomic charges:
              1
     1  C   -0.502731
     2  C    0.008917
     3  O   -0.733922
     4  H    0.159313
     5  H    0.149263
     6  H    0.177256
     7  H    0.138794
     8  H    0.169827
     9  H    0.433282
 Sum of Mulliken atomic charges =   0.00000
 Mulliken charges with hydrogens summed into heavy atoms:
              1
     1  C   -0.016898
     2  C    0.317538
     3  O   -0.300640
 Sum of Mulliken charges with hydrogens summed into heavy atoms =   0.00000
 Electronic spatial extent (au):  <R**2>=            192.8529
 Charge=              0.0000 electrons
 Dipole moment (field-independent basis, Debye):
    X=             -1.2301    Y=             -0.1340    Z=              1.3378  Tot=              1.8223
 Quadrupole moment (field-independent basis, Debye-Ang):
   XX=            -22.3062   YY=            -18.5228   ZZ=            -19.0326
   XY=             -1.0461   XZ=              2.0582   YZ=             -1.5002
 Traceless Quadrupole moment (field-independent basis, Debye-Ang):
   XX=             -2.3523   YY=              1.4311   ZZ=              0.9213
   XY=             -1.0461   XZ=              2.0582   YZ=             -1.5002
 Octapole moment (field-independent basis, Debye-Ang**2):
  XXX=              2.3035  YYY=             -2.1246  ZZZ=              0.5194  XYY=              3.3150
  XXY=             -1.3859  XXZ=              2.6583  XZZ=              2.6205  YZZ=             -1.0709
  YYZ=              0.9821  XYZ=             -1.8968
 Hexadecapole moment (field-independent basis, Debye-Ang**3):
 XXXX=           -160.1713 YYYY=            -53.5593 ZZZZ=            -32.5335 XXXY=             -6.9090
 XXXZ=              3.8963 YYYX=             -4.2225 YYYZ=             -2.3306 ZZZX=              1.7984
 ZZZY=             -1.1785 XXYY=            -32.4231 XXZZ=            -30.8304 YYZZ=            -12.8742
 XXYZ=             -2.2877 YYXZ=              1.4979 ZZXY=             -0.7645
 N-N= 8.226212434873D+01 E-N=-5.262305438748D+02  KE= 1.538885039872D+02
 1\1\GINC-B6\SP\RHF\6-31G(d)\C2H6O1\ROOT\29-Jun-2017\0\\#HF/6-31G* nosy
 mm SCF=Tight\\Mol\\0,1\C,0,-1.20905,-0.23651,-0.01918\C,0,0.08991,0.55
 293,0.04491\O,0,1.222,-0.26249,-0.11001\H,0,-2.06738,0.42387,0.06207\H
 ,0,-1.26769,-0.95774,0.79247\H,0,-1.27637,-0.77802,-0.95628\H,0,0.1455
 5,1.11298,0.97665\H,0,0.13148,1.27043,-0.76403\H,0,1.27318,-0.87009,0.
 61476\\Version=EM64L-G09RevA.02\HF=-154.0755757\RMSD=3.747e-09\Dipole=
 -0.4839584,-0.0527373,0.5263274\Quadrupole=-1.7489127,1.0639663,0.6849
 464,-0.7777135,1.5302258,-1.115397\PG=C01 [X(C2H6O1)]\\@


 THERE IS NO CURE FOR BIRTH AND DEATH SAVE TO ENJOY THE INTERVAL.

                               -- GEORGE SANTAYANA
 Job cpu time:  0 days  0 hours  0 minutes  5.0 seconds.
 File lengths (MBytes):  RWF=      5 Int=      0 D2E=      0 Chk=      1 Scr=      1
 Normal termination of Gaussian 09 at Thu Jun 29 11:44:27 2017.
