 Entering Gaussian System, Link 0=/lrlhps/apps/gaussian/gaussian-2016.a03/g16/g16
 Initial command:
 /lrlhps/apps/gaussian/gaussian-2016.a03/g16/l1.exe "/node/scratch/eb90162/Gau-31686.inp" -scrdir="/node/scratch/eb90162/"
 Entering Link 1 = /lrlhps/apps/gaussian/gaussian-2016.a03/g16/l1.exe PID=     31687.
  
 Copyright (c) 1988,1990,1992,1993,1995,1998,2003,2009,2016,
            Gaussian, Inc.  All Rights Reserved.
  
 This is part of the Gaussian(R) 16 program.  It is based on
 the Gaussian(R) 09 system (copyright 2009, Gaussian, Inc.),
 the Gaussian(R) 03 system (copyright 2003, Gaussian, Inc.),
 the Gaussian(R) 98 system (copyright 1998, Gaussian, Inc.),
 the Gaussian(R) 94 system (copyright 1995, Gaussian, Inc.),
 the Gaussian 92(TM) system (copyright 1992, Gaussian, Inc.),
 the Gaussian 90(TM) system (copyright 1990, Gaussian, Inc.),
 the Gaussian 88(TM) system (copyright 1988, Gaussian, Inc.),
 the Gaussian 86(TM) system (copyright 1986, Carnegie Mellon
 University), and the Gaussian 82(TM) system (copyright 1983,
 Carnegie Mellon University). Gaussian is a federally registered
 trademark of Gaussian, Inc.
  
 This software contains proprietary and confidential information,
 including trade secrets, belonging to Gaussian, Inc.
  
 This software is provided under written license and may be
 used, copied, transmitted, or stored only in accord with that
 written license.
  
 The following legend is applicable only to US Government
 contracts under FAR:
  
                    RESTRICTED RIGHTS LEGEND
  
 Use, reproduction and disclosure by the US Government is
 subject to restrictions as set forth in subparagraphs (a)
 and (c) of the Commercial Computer Software - Restricted
 Rights clause in FAR 52.227-19.
  
 Gaussian, Inc.
 340 Quinnipiac St., Bldg. 40, Wallingford CT 06492
  
  
 ---------------------------------------------------------------
 Warning -- This program may not be used in any manner that
 competes with the business of Gaussian, Inc. or will provide
 assistance to any competitor of Gaussian, Inc.  The licensee
 of this program is prohibited from giving any competitor of
 Gaussian, Inc. access to this program.  By using this program,
 the user acknowledges that Gaussian, Inc. is engaged in the
 business of creating and licensing software in the field of
 computational chemistry and represents and warrants to the
 licensee that it is not a competitor of Gaussian, Inc. and that
 it will not use this program in any manner prohibited above.
 ---------------------------------------------------------------
  

 Cite this work as:
 Gaussian 16, Revision A.03,
 M. J. Frisch, G. W. Trucks, H. B. Schlegel, G. E. Scuseria, 
 M. A. Robb, J. R. Cheeseman, G. Scalmani, V. Barone, 
 G. A. Petersson, H. Nakatsuji, X. Li, M. Caricato, A. V. Marenich, 
 J. Bloino, B. G. Janesko, R. Gomperts, B. Mennucci, H. P. Hratchian, 
 J. V. Ortiz, A. F. Izmaylov, J. L. Sonnenberg, D. Williams-Young, 
 F. Ding, F. Lipparini, F. Egidi, J. Goings, B. Peng, A. Petrone, 
 T. Henderson, D. Ranasinghe, V. G. Zakrzewski, J. Gao, N. Rega, 
 G. Zheng, W. Liang, M. Hada, M. Ehara, K. Toyota, R. Fukuda, 
 J. Hasegawa, M. Ishida, T. Nakajima, Y. Honda, O. Kitao, H. Nakai, 
 T. Vreven, K. Throssell, J. A. Montgomery, Jr., J. E. Peralta, 
 F. Ogliaro, M. J. Bearpark, J. J. Heyd, E. N. Brothers, K. N. Kudin, 
 V. N. Staroverov, T. A. Keith, R. Kobayashi, J. Normand, 
 K. Raghavachari, A. P. Rendell, J. C. Burant, S. S. Iyengar, 
 J. Tomasi, M. Cossi, J. M. Millam, M. Klene, C. Adamo, R. Cammi, 
 J. W. Ochterski, R. L. Martin, K. Morokuma, O. Farkas, 
 J. B. Foresman, and D. J. Fox, Gaussian, Inc., Wallingford CT, 2016.
 
 ******************************************
 Gaussian 16:  ES64L-G16RevA.03 25-Dec-2016
                26-Jun-2017 
 ******************************************
 %mem=1GB
 ----------
 # opt ram1
 ----------
 1/18=20,19=15,26=1,38=1/1,3;
 2/9=110,12=2,17=6,18=5,40=1/2;
 3/5=2,25=1,41=700000,71=1,116=1/1,2,3;
 4/35=1/1;
 5/5=2,35=1,38=5/2;
 6/7=2,8=2,9=2,10=2,28=1/1;
 7//1,2,3,16;
 1/18=20,19=15,26=1/3(2);
 2/9=110/2;
 99//99;
 2/9=110/2;
 3/5=2,25=1,41=700000,71=1,116=1,135=20/1,2,3;
 4/5=5,16=3,35=1/1;
 5/5=2,35=1,38=5/2;
 7//1,2,3,16;
 1/18=20,19=15,26=1/3(-5);
 2/9=110/2;
 6/7=2,8=2,9=2,10=2,19=2,28=1/1;
 99/9=1/99;
 ---
 Mol
 ---
 Symbolic Z-matrix:
 Charge =  0 Multiplicity = 1
 C                     1.0864   -0.0019   -0.0576 
 C                     2.6009   -0.0022   -0.0632 
 O                     3.0819    0.5516   -1.2793 
 H                     0.7      -0.4158    0.8779 
 H                     0.6958   -0.5931   -0.8925 
 H                     0.701     1.0156   -0.1803 
 H                     2.9936   -1.0184    0.0395 
 H                     2.9868    0.6018    0.7631 
 H                     2.744     0.001    -2.006 
 

 GradGradGradGradGradGradGradGradGradGradGradGradGradGradGradGradGradGrad
 Berny optimization.
 Initialization pass.
                           ----------------------------
                           !    Initial Parameters    !
                           ! (Angstroms and Degrees)  !
 --------------------------                            --------------------------
 ! Name  Definition              Value          Derivative Info.                !
 --------------------------------------------------------------------------------
 ! R1    R(1,2)                  1.5145         estimate D2E/DX2                !
 ! R2    R(1,4)                  1.0935         estimate D2E/DX2                !
 ! R3    R(1,5)                  1.0951         estimate D2E/DX2                !
 ! R4    R(1,6)                  1.0949         estimate D2E/DX2                !
 ! R5    R(2,3)                  1.4202         estimate D2E/DX2                !
 ! R6    R(2,7)                  1.0943         estimate D2E/DX2                !
 ! R7    R(2,8)                  1.0938         estimate D2E/DX2                !
 ! R8    R(3,9)                  0.9723         estimate D2E/DX2                !
 ! A1    A(2,1,4)              110.8818         estimate D2E/DX2                !
 ! A2    A(2,1,5)              110.7178         estimate D2E/DX2                !
 ! A3    A(2,1,6)              110.5944         estimate D2E/DX2                !
 ! A4    A(4,1,5)              108.7759         estimate D2E/DX2                !
 ! A5    A(4,1,6)              108.8582         estimate D2E/DX2                !
 ! A6    A(5,1,6)              106.9004         estimate D2E/DX2                !
 ! A7    A(1,2,3)              109.9849         estimate D2E/DX2                !
 ! A8    A(1,2,7)              111.0207         estimate D2E/DX2                !
 ! A9    A(1,2,8)              110.4803         estimate D2E/DX2                !
 ! A10   A(3,2,7)              108.7202         estimate D2E/DX2                !
 ! A11   A(3,2,8)              108.1823         estimate D2E/DX2                !
 ! A12   A(7,2,8)              108.3778         estimate D2E/DX2                !
 ! A13   A(2,3,9)              107.5454         estimate D2E/DX2                !
 ! D1    D(4,1,2,3)           -179.3833         estimate D2E/DX2                !
 ! D2    D(4,1,2,7)             60.2448         estimate D2E/DX2                !
 ! D3    D(4,1,2,8)            -60.0251         estimate D2E/DX2                !
 ! D4    D(5,1,2,3)             59.7792         estimate D2E/DX2                !
 ! D5    D(5,1,2,7)            -60.5927         estimate D2E/DX2                !
 ! D6    D(5,1,2,8)            179.1375         estimate D2E/DX2                !
 ! D7    D(6,1,2,3)            -58.5248         estimate D2E/DX2                !
 ! D8    D(6,1,2,7)           -178.8967         estimate D2E/DX2                !
 ! D9    D(6,1,2,8)             60.8334         estimate D2E/DX2                !
 ! D10   D(1,2,3,9)            -60.0268         estimate D2E/DX2                !
 ! D11   D(7,2,3,9)             61.7255         estimate D2E/DX2                !
 ! D12   D(8,2,3,9)            179.2216         estimate D2E/DX2                !
 --------------------------------------------------------------------------------
 Trust Radius=3.00D-01 FncErr=1.00D-07 GrdErr=1.00D-07 EigMax=2.50D+02 EigMin=1.00D-04
 Number of steps in this run=     43 maximum allowed number of steps=    100.
 GradGradGradGradGradGradGradGradGradGradGradGradGradGradGradGradGradGrad

                          Input orientation:                          
 ---------------------------------------------------------------------
 Center     Atomic      Atomic             Coordinates (Angstroms)
 Number     Number       Type             X           Y           Z
 ---------------------------------------------------------------------
      1          6           0        1.086400   -0.001900   -0.057600
      2          6           0        2.600900   -0.002200   -0.063200
      3          8           0        3.081900    0.551600   -1.279300
      4          1           0        0.700000   -0.415800    0.877900
      5          1           0        0.695800   -0.593100   -0.892500
      6          1           0        0.701000    1.015600   -0.180300
      7          1           0        2.993600   -1.018400    0.039500
      8          1           0        2.986800    0.601800    0.763100
      9          1           0        2.744000    0.001000   -2.006000
 ---------------------------------------------------------------------
                    Distance matrix (angstroms):
                    1          2          3          4          5
     1  C    0.000000
     2  C    1.514510   0.000000
     3  O    2.404357   1.420195   0.000000
     4  H    1.093517   2.161054   3.356013   0.000000
     5  H    1.095054   2.160164   2.674589   1.779261   0.000000
     6  H    1.094941   2.158529   2.663040   1.780083   1.759310
     7  H    2.163357   1.094268   2.052299   2.515282   2.515828
     8  H    2.156275   1.093849   2.045229   2.505622   3.068791
     9  H    2.558106   1.948066   0.972332   3.559289   2.405818
                    6          7          8          9
     6  H    0.000000
     7  H    3.072700   0.000000
     8  H    2.507213   1.774455   0.000000
     9  H    2.921719   2.299032   2.843911   0.000000
 Stoichiometry    C2H6O
 Framework group  C1[X(C2H6O)]
 Deg. of freedom    21
 Full point group                 C1      NOp   1
 Largest Abelian subgroup         C1      NOp   1
 Largest concise Abelian subgroup C1      NOp   1
                         Standard orientation:                         
 ---------------------------------------------------------------------
 Center     Atomic      Atomic             Coordinates (Angstroms)
 Number     Number       Type             X           Y           Z
 ---------------------------------------------------------------------
      1          6           0       -1.189045   -0.242619   -0.020089
      2          6           0        0.082412    0.577570    0.046435
      3          8           0        1.213396   -0.266467   -0.113040
      4          1           0       -2.070477    0.395089    0.090296
      5          1           0       -1.202125   -1.001687    0.769081
      6          1           0       -1.254564   -0.774807   -0.974750
      7          1           0        0.164527    1.097256    1.005918
      8          1           0        0.098402    1.324311   -0.752708
      9          1           0        1.196867   -0.918136    0.608406
 ---------------------------------------------------------------------
 Rotational constants (GHZ):          33.3086132           9.5398053           8.3219219
 Standard basis: VSTO-6G (5D, 7F)
 There are    18 symmetry adapted cartesian basis functions of A   symmetry.
 There are    18 symmetry adapted basis functions of A   symmetry.
    18 basis functions,   108 primitive gaussians,    18 cartesian basis functions
    10 alpha electrons       10 beta electrons
       nuclear repulsion energy        65.9025960351 Hartrees.
 Integral buffers will be    131072 words long.
 Regular integral format.
 Two-electron integral symmetry is turned off.
 Do NDO integrals.
 One-electron integrals computed using PRISM.
 NBasis=    18 RedAO= F EigKep=  0.00D+00  NBF=    18
 NBsUse=    18 1.00D-04 EigRej=  0.00D+00 NBFU=    18
 Simple Huckel Guess.
 Keep J ints in memory in canonical form, NReq=859920.
 Overlap will be assumed to be unity.
 Requested convergence on RMS density matrix=1.00D-08 within 128 cycles.
 Requested convergence on MAX density matrix=1.00D-06.
 Requested convergence on             energy=1.00D-06.
 No special actions if energy rises.
 SCF Done:  E(RAM1) = -0.995182431985E-01 A.U. after   12 cycles
            NFock= 11  Conv=0.43D-08     -V/T= 0.9974

 **********************************************************************

            Population analysis using the SCF density.

 **********************************************************************

 Orbital symmetries:
       Occupied  (A) (A) (A) (A) (A) (A) (A) (A) (A) (A)
       Virtual   (A) (A) (A) (A) (A) (A) (A) (A)
 The electronic state is 1-A.
 Alpha  occ. eigenvalues --   -1.40491  -1.15769  -0.87957  -0.66196  -0.59246
 Alpha  occ. eigenvalues --   -0.56657  -0.50288  -0.47938  -0.44077  -0.40896
 Alpha virt. eigenvalues --    0.13130   0.14299   0.15269   0.15779   0.17147
 Alpha virt. eigenvalues --    0.17896   0.18667   0.22972
          Condensed to atoms (all electrons):
               1          2          3          4          5          6
     1  C    4.252735   0.000000   0.000000   0.000000   0.000000   0.000000
     2  C    0.000000   4.016416   0.000000   0.000000   0.000000   0.000000
     3  O    0.000000   0.000000   6.331505   0.000000   0.000000   0.000000
     4  H    0.000000   0.000000   0.000000   0.918113   0.000000   0.000000
     5  H    0.000000   0.000000   0.000000   0.000000   0.929672   0.000000
     6  H    0.000000   0.000000   0.000000   0.000000   0.000000   0.913155
     7  H    0.000000   0.000000   0.000000   0.000000   0.000000   0.000000
     8  H    0.000000   0.000000   0.000000   0.000000   0.000000   0.000000
     9  H    0.000000   0.000000   0.000000   0.000000   0.000000   0.000000
               7          8          9
     1  C    0.000000   0.000000   0.000000
     2  C    0.000000   0.000000   0.000000
     3  O    0.000000   0.000000   0.000000
     4  H    0.000000   0.000000   0.000000
     5  H    0.000000   0.000000   0.000000
     6  H    0.000000   0.000000   0.000000
     7  H    0.941993   0.000000   0.000000
     8  H    0.000000   0.895036   0.000000
     9  H    0.000000   0.000000   0.801376
 Mulliken charges:
               1
     1  C   -0.252735
     2  C   -0.016416
     3  O   -0.331505
     4  H    0.081887
     5  H    0.070328
     6  H    0.086845
     7  H    0.058007
     8  H    0.104964
     9  H    0.198624
 Sum of Mulliken charges =   0.00000
 Mulliken charges with hydrogens summed into heavy atoms:
               1
     1  C   -0.013674
     2  C    0.146555
     3  O   -0.132880
 Charge=              0.0000 electrons
 Dipole moment (field-independent basis, Debye):
    X=             -1.2972    Y=             -0.0264    Z=              1.0842  Tot=              1.6909
 N-N= 6.590259603515D+01 E-N=-7.932242259875D+01  KE=-3.849151260404D+01
 Calling FoFJK, ICntrl=      2127 FMM=F ISym2X=0 I1Cent= 0 IOpClX= 0 NMat=1 NMatS=1 NMatT=0.
 ***** Axes restored to original set *****
 -------------------------------------------------------------------
 Center     Atomic                   Forces (Hartrees/Bohr)
 Number     Number              X              Y              Z
 -------------------------------------------------------------------
      1        6           0.009142051   -0.000583646    0.000356519
      2        6          -0.015779209    0.001293831   -0.019659185
      3        8           0.003239990    0.002536345   -0.000755501
      4        1          -0.004282231   -0.006221026    0.014067880
      5        1          -0.004639020   -0.010442741   -0.012094035
      6        1          -0.004069772    0.015974585   -0.000588593
      7        1           0.005976018   -0.020277371    0.003359411
      8        1           0.009167356    0.014780792    0.008858292
      9        1           0.001244818    0.002939231    0.006455213
 -------------------------------------------------------------------
 Cartesian Forces:  Max     0.020277371 RMS     0.009493809

 GradGradGradGradGradGradGradGradGradGradGradGradGradGradGradGradGradGrad
 Berny optimization.
 FormGI is forming the generalized inverse of G from B-inverse, IUseBI=4.
 Internal  Forces:  Max     0.021290628 RMS     0.007490720
 Search for a local minimum.
 Step number   1 out of a maximum of   43
 All quantities printed in internal units (Hartrees-Bohrs-Radians)
 Mixed Optimization -- RFO/linear search
 Second derivative matrix not updated -- first step.
 ITU=  0
     Eigenvalues ---    0.00574   0.01425   0.05213   0.05650   0.05770
     Eigenvalues ---    0.05828   0.11505   0.13799   0.16000   0.16000
     Eigenvalues ---    0.16000   0.16000   0.22019   0.30902   0.34235
     Eigenvalues ---    0.34248   0.34324   0.34372   0.34409   0.42431
     Eigenvalues ---    0.52903
 RFO step:  Lambda=-6.33967990D-03 EMin= 5.74002978D-03
 Linear search not attempted -- first point.
 Iteration  1 RMS(Cart)=  0.03504394 RMS(Int)=  0.00062051
 Iteration  2 RMS(Cart)=  0.00068915 RMS(Int)=  0.00020964
 Iteration  3 RMS(Cart)=  0.00000027 RMS(Int)=  0.00020964
 Variable       Old X    -DE/DX   Delta X   Delta X   Delta X     New X
                                 (Linear)    (Quad)   (Total)
    R1        2.86201   0.00386   0.00000   0.01222   0.01222   2.87423
    R2        2.06645   0.01590   0.00000   0.04538   0.04538   2.11183
    R3        2.06935   0.01651   0.00000   0.04736   0.04736   2.11671
    R4        2.06914   0.01634   0.00000   0.04685   0.04685   2.11599
    R5        2.68378  -0.00123   0.00000  -0.00285  -0.00285   2.68093
    R6        2.06787   0.02129   0.00000   0.06090   0.06090   2.12877
    R7        2.06708   0.01809   0.00000   0.05167   0.05167   2.11875
    R8        1.83744  -0.00692   0.00000  -0.01293  -0.01293   1.82451
    A1        1.93525  -0.00171   0.00000  -0.01403  -0.01414   1.92112
    A2        1.93239  -0.00101   0.00000  -0.00403  -0.00406   1.92833
    A3        1.93024  -0.00179   0.00000  -0.00910  -0.00915   1.92108
    A4        1.89850   0.00102   0.00000   0.00297   0.00290   1.90140
    A5        1.89993   0.00133   0.00000   0.00407   0.00394   1.90388
    A6        1.86576   0.00239   0.00000   0.02169   0.02170   1.88747
    A7        1.91960   0.00745   0.00000   0.03073   0.03043   1.95003
    A8        1.93768  -0.00352   0.00000  -0.00382  -0.00445   1.93322
    A9        1.92825   0.00181   0.00000   0.00673   0.00690   1.93514
   A10        1.89753   0.00080   0.00000   0.02767   0.02726   1.92479
   A11        1.88814  -0.00843   0.00000  -0.07604  -0.07579   1.81234
   A12        1.89155   0.00164   0.00000   0.01284   0.01303   1.90458
   A13        1.87702  -0.00361   0.00000  -0.02170  -0.02170   1.85532
    D1       -3.13083   0.00282   0.00000   0.04527   0.04533  -3.08550
    D2        1.05147  -0.00081   0.00000  -0.00712  -0.00718   1.04429
    D3       -1.04764  -0.00176   0.00000  -0.02521  -0.02526  -1.07289
    D4        1.04334   0.00336   0.00000   0.05360   0.05365   1.09700
    D5       -1.05754  -0.00028   0.00000   0.00121   0.00114  -1.05640
    D6        3.12654  -0.00122   0.00000  -0.01688  -0.01693   3.10961
    D7       -1.02145   0.00216   0.00000   0.03497   0.03508  -0.98637
    D8       -3.12234  -0.00147   0.00000  -0.01742  -0.01742  -3.13976
    D9        1.06174  -0.00242   0.00000  -0.03551  -0.03550   1.02624
   D10       -1.04767   0.00039   0.00000  -0.00891  -0.00943  -1.05710
   D11        1.07731   0.00121   0.00000   0.02318   0.02375   1.10107
   D12        3.12801  -0.00107   0.00000   0.01153   0.01147   3.13948
         Item               Value     Threshold  Converged?
 Maximum Force            0.021291     0.000450     NO 
 RMS     Force            0.007491     0.000300     NO 
 Maximum Displacement     0.083856     0.001800     NO 
 RMS     Displacement     0.035112     0.001200     NO 
 Predicted change in Energy=-3.275184D-03
 GradGradGradGradGradGradGradGradGradGradGradGradGradGradGradGradGradGrad

                          Input orientation:                          
 ---------------------------------------------------------------------
 Center     Atomic      Atomic             Coordinates (Angstroms)
 Number     Number       Type             X           Y           Z
 ---------------------------------------------------------------------
      1          6           0        1.071813   -0.006830   -0.059901
      2          6           0        2.592639   -0.015222   -0.079818
      3          8           0        3.105558    0.566510   -1.267749
      4          1           0        0.698685   -0.416884    0.910411
      5          1           0        0.665359   -0.629062   -0.897923
      6          1           0        0.691638    1.038833   -0.185847
      7          1           0        2.987916   -1.062775    0.044212
      8          1           0        3.006468    0.632570    0.736382
      9          1           0        2.770323    0.031459   -1.998167
 ---------------------------------------------------------------------
                    Distance matrix (angstroms):
                    1          2          3          4          5
     1  C    0.000000
     2  C    1.520979   0.000000
     3  O    2.433872   1.418688   0.000000
     4  H    1.117531   2.174615   3.391826   0.000000
     5  H    1.120115   2.181857   2.742396   1.821044   0.000000
     6  H    1.119734   2.176253   2.687120   1.822345   1.813729
     7  H    2.190277   1.126497   2.095149   2.531414   2.543619
     8  H    2.187645   1.121192   2.007666   2.541162   3.121451
     9  H    2.577456   1.927125   0.965491   3.598962   2.465299
                    6          7          8          9
     6  H    0.000000
     7  H    3.121310   0.000000
     8  H    2.524677   1.831294   0.000000
     9  H    2.936024   2.327232   2.809778   0.000000
 Stoichiometry    C2H6O
 Framework group  C1[X(C2H6O)]
 Deg. of freedom    21
 Full point group                 C1      NOp   1
 Largest Abelian subgroup         C1      NOp   1
 Largest concise Abelian subgroup C1      NOp   1
                         Standard orientation:                         
 ---------------------------------------------------------------------
 Center     Atomic      Atomic             Coordinates (Angstroms)
 Number     Number       Type             X           Y           Z
 ---------------------------------------------------------------------
      1          6           0       -1.205654   -0.238657   -0.021598
      2          6           0        0.085253    0.562591    0.048692
      3          8           0        1.226526   -0.265366   -0.108341
      4          1           0       -2.086234    0.446031    0.046634
      5          1           0       -1.254201   -0.978245    0.818229
      6          1           0       -1.255146   -0.803641   -0.987076
      7          1           0        0.148063    1.134595    1.017125
      8          1           0        0.156002    1.282182   -0.808195
      9          1           0        1.201713   -0.901599    0.617445
 ---------------------------------------------------------------------
 Rotational constants (GHZ):          33.4056831           9.2914853           8.1928779
 Standard basis: VSTO-6G (5D, 7F)
 There are    18 symmetry adapted cartesian basis functions of A   symmetry.
 There are    18 symmetry adapted basis functions of A   symmetry.
    18 basis functions,   108 primitive gaussians,    18 cartesian basis functions
    10 alpha electrons       10 beta electrons
       nuclear repulsion energy        65.6099614836 Hartrees.
 Integral buffers will be    131072 words long.
 Regular integral format.
 Two-electron integral symmetry is turned off.
 Do NDO integrals.
 One-electron integrals computed using PRISM.
 NBasis=    18 RedAO= F EigKep=  0.00D+00  NBF=    18
 NBsUse=    18 1.00D-04 EigRej=  0.00D+00 NBFU=    18
 Initial guess from the checkpoint file:  "/node/scratch/eb90162/Gau-31687.chk"
 B after Tr=    -0.000000   -0.000000   -0.000000
         Rot=    0.999937    0.010339    0.003295    0.002734 Ang=   1.28 deg.
 Keep J ints in memory in canonical form, NReq=859920.
 Overlap will be assumed to be unity.
 Requested convergence on RMS density matrix=1.00D-08 within 128 cycles.
 Requested convergence on MAX density matrix=1.00D-06.
 Requested convergence on             energy=1.00D-06.
 No special actions if energy rises.
 SCF Done:  E(RAM1) = -0.102237268737     A.U. after   11 cycles
            NFock= 10  Conv=0.34D-08     -V/T= 0.9973
 Calling FoFJK, ICntrl=      2127 FMM=F ISym2X=0 I1Cent= 0 IOpClX= 0 NMat=1 NMatS=1 NMatT=0.
 ***** Axes restored to original set *****
 -------------------------------------------------------------------
 Center     Atomic                   Forces (Hartrees/Bohr)
 Number     Number              X              Y              Z
 -------------------------------------------------------------------
      1        6           0.005034040   -0.000177331   -0.001450362
      2        6          -0.004936525    0.001286081   -0.001323804
      3        8          -0.002636516   -0.005096093    0.001710857
      4        1           0.000820987    0.000710798   -0.001736253
      5        1           0.001064033    0.001185791    0.002252619
      6        1           0.000862658   -0.002357616    0.000523385
      7        1          -0.001262081    0.002423465   -0.001052821
      8        1           0.000119052    0.000228323    0.001783260
      9        1           0.000934352    0.001796582   -0.000706881
 -------------------------------------------------------------------
 Cartesian Forces:  Max     0.005096093 RMS     0.002159430

 GradGradGradGradGradGradGradGradGradGradGradGradGradGradGradGradGradGrad
 Berny optimization.
 Using GEDIIS/GDIIS optimizer.
 FormGI is forming the generalized inverse of G from B-inverse, IUseBI=4.
 Internal  Forces:  Max     0.007789831 RMS     0.001864087
 Search for a local minimum.
 Step number   2 out of a maximum of   43
 All quantities printed in internal units (Hartrees-Bohrs-Radians)
 Mixed Optimization -- RFO/linear search
 Update second derivatives using D2CorX and points    1    2
 DE= -2.72D-03 DEPred=-3.28D-03 R= 8.30D-01
 TightC=F SS=  1.41D+00  RLast= 1.78D-01 DXNew= 5.0454D-01 5.3336D-01
 Trust test= 8.30D-01 RLast= 1.78D-01 DXMaxT set to 5.05D-01
 ITU=  1  0
 Use linear search instead of GDIIS.
     Eigenvalues ---    0.00574   0.01423   0.05259   0.05775   0.05814
     Eigenvalues ---    0.05855   0.11778   0.13842   0.15892   0.16000
     Eigenvalues ---    0.16000   0.16366   0.21849   0.29280   0.33823
     Eigenvalues ---    0.34242   0.34290   0.34389   0.39676   0.43414
     Eigenvalues ---    0.52711
 RFO step:  Lambda=-2.81191449D-04 EMin= 5.73957698D-03
 Quartic linear search produced a step of -0.11573.
 Iteration  1 RMS(Cart)=  0.00940420 RMS(Int)=  0.00008920
 Iteration  2 RMS(Cart)=  0.00007459 RMS(Int)=  0.00002236
 Iteration  3 RMS(Cart)=  0.00000001 RMS(Int)=  0.00002236
 Variable       Old X    -DE/DX   Delta X   Delta X   Delta X     New X
                                 (Linear)    (Quad)   (Total)
    R1        2.87423  -0.00779  -0.00141  -0.02030  -0.02172   2.85252
    R2        2.11183  -0.00204  -0.00525   0.00205  -0.00320   2.10863
    R3        2.11671  -0.00273  -0.00548   0.00057  -0.00491   2.11180
    R4        2.11599  -0.00255  -0.00542   0.00095  -0.00448   2.11151
    R5        2.68093  -0.00281   0.00033  -0.00631  -0.00598   2.67495
    R6        2.12877  -0.00281  -0.00705   0.00255  -0.00450   2.12427
    R7        2.11875   0.00147  -0.00598   0.01209   0.00611   2.12486
    R8        1.82451  -0.00079   0.00150  -0.00339  -0.00190   1.82261
    A1        1.92112  -0.00030   0.00164  -0.00486  -0.00322   1.91790
    A2        1.92833  -0.00005   0.00047  -0.00068  -0.00021   1.92812
    A3        1.92108   0.00013   0.00106  -0.00007   0.00100   1.92208
    A4        1.90140   0.00001  -0.00034  -0.00080  -0.00113   1.90026
    A5        1.90388   0.00001  -0.00046   0.00016  -0.00028   1.90360
    A6        1.88747   0.00021  -0.00251   0.00645   0.00393   1.89140
    A7        1.95003   0.00006  -0.00352   0.00508   0.00155   1.95158
    A8        1.93322  -0.00050   0.00052  -0.00841  -0.00784   1.92539
    A9        1.93514  -0.00017  -0.00080   0.00380   0.00295   1.93810
   A10        1.92479  -0.00047  -0.00315  -0.00414  -0.00727   1.91751
   A11        1.81234   0.00094   0.00877   0.00098   0.00970   1.82204
   A12        1.90458   0.00021  -0.00151   0.00339   0.00188   1.90645
   A13        1.85532   0.00359   0.00251   0.01632   0.01883   1.87415
    D1       -3.08550  -0.00068  -0.00525  -0.00069  -0.00594  -3.09145
    D2        1.04429   0.00024   0.00083   0.00713   0.00796   1.05225
    D3       -1.07289   0.00041   0.00292   0.00597   0.00891  -1.06399
    D4        1.09700  -0.00047  -0.00621   0.00389  -0.00233   1.09467
    D5       -1.05640   0.00045  -0.00013   0.01172   0.01158  -1.04482
    D6        3.10961   0.00063   0.00196   0.01055   0.01252   3.12213
    D7       -0.98637  -0.00078  -0.00406  -0.00363  -0.00770  -0.99407
    D8       -3.13976   0.00014   0.00202   0.00419   0.00620  -3.13356
    D9        1.02624   0.00032   0.00411   0.00303   0.00714   1.03339
   D10       -1.05710   0.00064   0.00109   0.01941   0.02057  -1.03652
   D11        1.10107  -0.00029  -0.00275   0.00917   0.00638   1.10744
   D12        3.13948   0.00025  -0.00133   0.01172   0.01037  -3.13333
         Item               Value     Threshold  Converged?
 Maximum Force            0.007790     0.000450     NO 
 RMS     Force            0.001864     0.000300     NO 
 Maximum Displacement     0.024646     0.001800     NO 
 RMS     Displacement     0.009409     0.001200     NO 
 Predicted change in Energy=-1.853201D-04
 GradGradGradGradGradGradGradGradGradGradGradGradGradGradGradGradGradGrad

                          Input orientation:                          
 ---------------------------------------------------------------------
 Center     Atomic      Atomic             Coordinates (Angstroms)
 Number     Number       Type             X           Y           Z
 ---------------------------------------------------------------------
      1          6           0        1.078050   -0.006291   -0.061499
      2          6           0        2.587439   -0.012300   -0.077645
      3          8           0        3.103110    0.558038   -1.266135
      4          1           0        0.707201   -0.413931    0.908756
      5          1           0        0.675743   -0.633276   -0.894494
      6          1           0        0.696318    1.036041   -0.189285
      7          1           0        2.974874   -1.060701    0.042308
      8          1           0        3.002607    0.632347    0.744793
      9          1           0        2.765060    0.038674   -2.005199
 ---------------------------------------------------------------------
                    Distance matrix (angstroms):
                    1          2          3          4          5
     1  C    0.000000
     2  C    1.509487   0.000000
     3  O    2.422908   1.415525   0.000000
     4  H    1.115837   2.160922   3.378646   0.000000
     5  H    1.117516   2.169663   2.729369   1.816813   0.000000
     6  H    1.117365   2.165137   2.679690   1.818854   1.812281
     7  H    2.172671   1.124118   2.085374   2.512247   2.519185
     8  H    2.182175   1.124428   2.014808   2.527938   3.115022
     9  H    2.574100   1.936392   0.964486   3.595937   2.459762
                    6          7          8          9
     6  H    0.000000
     7  H    3.105122   0.000000
     8  H    2.520801   1.833212   0.000000
     9  H    2.927794   2.333437   2.823354   0.000000
 Stoichiometry    C2H6O
 Framework group  C1[X(C2H6O)]
 Deg. of freedom    21
 Full point group                 C1      NOp   1
 Largest Abelian subgroup         C1      NOp   1
 Largest concise Abelian subgroup C1      NOp   1
                         Standard orientation:                         
 ---------------------------------------------------------------------
 Center     Atomic      Atomic             Coordinates (Angstroms)
 Number     Number       Type             X           Y           Z
 ---------------------------------------------------------------------
      1          6           0       -1.197792   -0.240908   -0.022788
      2          6           0        0.079657    0.559968    0.049845
      3          8           0        1.223555   -0.258769   -0.107882
      4          1           0       -2.077972    0.440743    0.052895
      5          1           0       -1.242102   -0.982651    0.811894
      6          1           0       -1.248662   -0.796659   -0.990805
      7          1           0        0.138061    1.113891    1.026266
      8          1           0        0.143591    1.295912   -0.797879
      9          1           0        1.207451   -0.915447    0.598339
 ---------------------------------------------------------------------
 Rotational constants (GHZ):          33.6101298           9.3693051           8.2595550
 Standard basis: VSTO-6G (5D, 7F)
 There are    18 symmetry adapted cartesian basis functions of A   symmetry.
 There are    18 symmetry adapted basis functions of A   symmetry.
    18 basis functions,   108 primitive gaussians,    18 cartesian basis functions
    10 alpha electrons       10 beta electrons
       nuclear repulsion energy        65.7084772569 Hartrees.
 Integral buffers will be    131072 words long.
 Regular integral format.
 Two-electron integral symmetry is turned off.
 Do NDO integrals.
 One-electron integrals computed using PRISM.
 NBasis=    18 RedAO= F EigKep=  0.00D+00  NBF=    18
 NBsUse=    18 1.00D-04 EigRej=  0.00D+00 NBFU=    18
 Initial guess from the checkpoint file:  "/node/scratch/eb90162/Gau-31687.chk"
 B after Tr=     0.000000    0.000000    0.000000
         Rot=    0.999987   -0.004737   -0.000208   -0.001836 Ang=  -0.58 deg.
 Keep J ints in memory in canonical form, NReq=859920.
 Overlap will be assumed to be unity.
 Requested convergence on RMS density matrix=1.00D-08 within 128 cycles.
 Requested convergence on MAX density matrix=1.00D-06.
 Requested convergence on             energy=1.00D-06.
 No special actions if energy rises.
 SCF Done:  E(RAM1) = -0.102392082558     A.U. after   10 cycles
            NFock=  9  Conv=0.65D-08     -V/T= 0.9973
 Calling FoFJK, ICntrl=      2127 FMM=F ISym2X=0 I1Cent= 0 IOpClX= 0 NMat=1 NMatS=1 NMatT=0.
 ***** Axes restored to original set *****
 -------------------------------------------------------------------
 Center     Atomic                   Forces (Hartrees/Bohr)
 Number     Number              X              Y              Z
 -------------------------------------------------------------------
      1        6          -0.001383700    0.000104911    0.000041878
      2        6           0.000913141   -0.000338243   -0.000377227
      3        8           0.001327902    0.000309768   -0.000076481
      4        1          -0.000425150    0.000191810   -0.000329939
      5        1          -0.000201152    0.000334112    0.000635587
      6        1          -0.000316726   -0.000726641    0.000128808
      7        1           0.000340869    0.000394983    0.000233730
      8        1           0.000085924   -0.000369739   -0.000653648
      9        1          -0.000341108    0.000099039    0.000397293
 -------------------------------------------------------------------
 Cartesian Forces:  Max     0.001383700 RMS     0.000530290

 GradGradGradGradGradGradGradGradGradGradGradGradGradGradGradGradGradGrad
 Berny optimization.
 Using GEDIIS/GDIIS optimizer.
 FormGI is forming the generalized inverse of G from B-inverse, IUseBI=4.
 Internal  Forces:  Max     0.002331290 RMS     0.000598348
 Search for a local minimum.
 Step number   3 out of a maximum of   43
 All quantities printed in internal units (Hartrees-Bohrs-Radians)
 Mixed Optimization -- En-DIIS/RFO-DIIS
 Update second derivatives using D2CorX and points    1    2    3
 DE= -1.55D-04 DEPred=-1.85D-04 R= 8.35D-01
 TightC=F SS=  1.41D+00  RLast= 4.92D-02 DXNew= 8.4853D-01 1.4769D-01
 Trust test= 8.35D-01 RLast= 4.92D-02 DXMaxT set to 5.05D-01
 ITU=  1  1  0
 Use linear search instead of GDIIS.
     Eigenvalues ---    0.00571   0.01368   0.05375   0.05719   0.05814
     Eigenvalues ---    0.05833   0.11819   0.13826   0.15641   0.16000
     Eigenvalues ---    0.16000   0.17142   0.21086   0.33591   0.34124
     Eigenvalues ---    0.34242   0.34386   0.34973   0.40895   0.45397
     Eigenvalues ---    0.52626
 RFO step:  Lambda=-3.51192798D-05 EMin= 5.70690229D-03
 Quartic linear search produced a step of -0.14853.
 Iteration  1 RMS(Cart)=  0.00517548 RMS(Int)=  0.00002588
 Iteration  2 RMS(Cart)=  0.00002112 RMS(Int)=  0.00000351
 Iteration  3 RMS(Cart)=  0.00000000 RMS(Int)=  0.00000351
 Variable       Old X    -DE/DX   Delta X   Delta X   Delta X     New X
                                 (Linear)    (Quad)   (Total)
    R1        2.85252   0.00233   0.00323   0.00070   0.00393   2.85645
    R2        2.10863  -0.00022   0.00048  -0.00145  -0.00098   2.10765
    R3        2.11180  -0.00059   0.00073  -0.00281  -0.00208   2.10972
    R4        2.11151  -0.00058   0.00066  -0.00268  -0.00202   2.10950
    R5        2.67495   0.00025   0.00089  -0.00102  -0.00013   2.67482
    R6        2.12427  -0.00023   0.00067  -0.00185  -0.00118   2.12310
    R7        2.12486  -0.00066  -0.00091  -0.00016  -0.00107   2.12379
    R8        1.82261  -0.00024   0.00028  -0.00083  -0.00055   1.82207
    A1        1.91790   0.00054   0.00048   0.00180   0.00228   1.92018
    A2        1.92812   0.00042   0.00003   0.00216   0.00219   1.93031
    A3        1.92208   0.00061  -0.00015   0.00362   0.00347   1.92555
    A4        1.90026  -0.00053   0.00017  -0.00337  -0.00320   1.89706
    A5        1.90360  -0.00059   0.00004  -0.00321  -0.00317   1.90042
    A6        1.89140  -0.00048  -0.00058  -0.00119  -0.00178   1.88962
    A7        1.95158   0.00122  -0.00023   0.00552   0.00529   1.95687
    A8        1.92539   0.00002   0.00116  -0.00008   0.00108   1.92647
    A9        1.93810   0.00009  -0.00044   0.00123   0.00080   1.93889
   A10        1.91751  -0.00044   0.00108  -0.00212  -0.00104   1.91647
   A11        1.82204  -0.00076  -0.00144  -0.00209  -0.00353   1.81851
   A12        1.90645  -0.00020  -0.00028  -0.00274  -0.00303   1.90342
   A13        1.87415  -0.00066  -0.00280   0.00143  -0.00136   1.87279
    D1       -3.09145   0.00015   0.00088   0.00492   0.00580  -3.08565
    D2        1.05225  -0.00015  -0.00118   0.00385   0.00267   1.05492
    D3       -1.06399   0.00003  -0.00132   0.00655   0.00523  -1.05876
    D4        1.09467   0.00020   0.00035   0.00658   0.00693   1.10160
    D5       -1.04482  -0.00010  -0.00172   0.00551   0.00379  -1.04102
    D6        3.12213   0.00008  -0.00186   0.00821   0.00635   3.12848
    D7       -0.99407   0.00015   0.00114   0.00437   0.00552  -0.98855
    D8       -3.13356  -0.00015  -0.00092   0.00331   0.00238  -3.13117
    D9        1.03339   0.00002  -0.00106   0.00601   0.00495   1.03833
   D10       -1.03652   0.00009  -0.00306   0.01437   0.01132  -1.02521
   D11        1.10744   0.00064  -0.00095   0.01657   0.01561   1.12306
   D12       -3.13333  -0.00020  -0.00154   0.01125   0.00972  -3.12361
         Item               Value     Threshold  Converged?
 Maximum Force            0.002331     0.000450     NO 
 RMS     Force            0.000598     0.000300     NO 
 Maximum Displacement     0.013519     0.001800     NO 
 RMS     Displacement     0.005181     0.001200     NO 
 Predicted change in Energy=-2.224469D-05
 GradGradGradGradGradGradGradGradGradGradGradGradGradGradGradGradGradGrad

                          Input orientation:                          
 ---------------------------------------------------------------------
 Center     Atomic      Atomic             Coordinates (Angstroms)
 Number     Number       Type             X           Y           Z
 ---------------------------------------------------------------------
      1          6           0        1.076920   -0.006600   -0.061598
      2          6           0        2.588370   -0.013436   -0.079101
      3          8           0        3.110263    0.557213   -1.264639
      4          1           0        0.704522   -0.409429    0.909478
      5          1           0        0.671677   -0.636680   -0.889344
      6          1           0        0.692319    1.033106   -0.192799
      7          1           0        2.976289   -1.060857    0.042000
      8          1           0        3.005243    0.629625    0.742945
      9          1           0        2.764796    0.045658   -2.005342
 ---------------------------------------------------------------------
                    Distance matrix (angstroms):
                    1          2          3          4          5
     1  C    0.000000
     2  C    1.511567   0.000000
     3  O    2.428925   1.415455   0.000000
     4  H    1.115321   2.164020   3.383604   0.000000
     5  H    1.116417   2.172243   2.740972   1.813417   0.000000
     6  H    1.116297   2.168683   2.687335   1.815508   1.809360
     7  H    2.174809   1.123494   2.084084   2.517499   2.521619
     8  H    2.184147   1.123863   2.011633   2.529957   3.116636
     9  H    2.574839   1.935206   0.964198   3.598334   2.468235
                    6          7          8          9
     6  H    0.000000
     7  H    3.107464   0.000000
     8  H    2.527455   1.830270   0.000000
     9  H    2.924983   2.336817   2.819913   0.000000
 Stoichiometry    C2H6O
 Framework group  C1[X(C2H6O)]
 Deg. of freedom    21
 Full point group                 C1      NOp   1
 Largest Abelian subgroup         C1      NOp   1
 Largest concise Abelian subgroup C1      NOp   1
                         Standard orientation:                         
 ---------------------------------------------------------------------
 Center     Atomic      Atomic             Coordinates (Angstroms)
 Number     Number       Type             X           Y           Z
 ---------------------------------------------------------------------
      1          6           0       -1.200930   -0.239080   -0.022891
      2          6           0        0.081219    0.558190    0.049849
      3          8           0        1.226460   -0.258721   -0.106972
      4          1           0       -2.079789    0.444110    0.046376
      5          1           0       -1.253455   -0.975678    0.814397
      6          1           0       -1.254495   -0.800183   -0.986433
      7          1           0        0.141106    1.114738    1.023967
      8          1           0        0.148964    1.293297   -0.797556
      9          1           0        1.204250   -0.921174    0.593271
 ---------------------------------------------------------------------
 Rotational constants (GHZ):          33.7301949           9.3292024           8.2304815
 Standard basis: VSTO-6G (5D, 7F)
 There are    18 symmetry adapted cartesian basis functions of A   symmetry.
 There are    18 symmetry adapted basis functions of A   symmetry.
    18 basis functions,   108 primitive gaussians,    18 cartesian basis functions
    10 alpha electrons       10 beta electrons
       nuclear repulsion energy        65.6881360496 Hartrees.
 Integral buffers will be    131072 words long.
 Regular integral format.
 Two-electron integral symmetry is turned off.
 Do NDO integrals.
 One-electron integrals computed using PRISM.
 NBasis=    18 RedAO= F EigKep=  0.00D+00  NBF=    18
 NBsUse=    18 1.00D-04 EigRej=  0.00D+00 NBFU=    18
 Initial guess from the checkpoint file:  "/node/scratch/eb90162/Gau-31687.chk"
 B after Tr=    -0.000000   -0.000000   -0.000000
         Rot=    0.999999    0.000664    0.000246    0.000844 Ang=   0.13 deg.
 Keep J ints in memory in canonical form, NReq=859920.
 Overlap will be assumed to be unity.
 Requested convergence on RMS density matrix=1.00D-08 within 128 cycles.
 Requested convergence on MAX density matrix=1.00D-06.
 Requested convergence on             energy=1.00D-06.
 No special actions if energy rises.
 SCF Done:  E(RAM1) = -0.102416963958     A.U. after   10 cycles
            NFock=  9  Conv=0.26D-08     -V/T= 0.9973
 Calling FoFJK, ICntrl=      2127 FMM=F ISym2X=0 I1Cent= 0 IOpClX= 0 NMat=1 NMatS=1 NMatT=0.
 ***** Axes restored to original set *****
 -------------------------------------------------------------------
 Center     Atomic                   Forces (Hartrees/Bohr)
 Number     Number              X              Y              Z
 -------------------------------------------------------------------
      1        6           0.000282985    0.000084430   -0.000160661
      2        6          -0.000127664    0.000054789   -0.000008507
      3        8           0.000335031    0.000051385   -0.000065028
      4        1          -0.000045020   -0.000020851    0.000179914
      5        1          -0.000055217   -0.000119738   -0.000084481
      6        1          -0.000057217    0.000078641   -0.000012724
      7        1           0.000118916   -0.000134269    0.000129580
      8        1          -0.000142845   -0.000070602   -0.000014624
      9        1          -0.000308970    0.000076216    0.000036530
 -------------------------------------------------------------------
 Cartesian Forces:  Max     0.000335031 RMS     0.000135763

 GradGradGradGradGradGradGradGradGradGradGradGradGradGradGradGradGradGrad
 Berny optimization.
 Using GEDIIS/GDIIS optimizer.
 FormGI is forming the generalized inverse of G from B-inverse, IUseBI=4.
 Internal  Forces:  Max     0.000241115 RMS     0.000101926
 Search for a local minimum.
 Step number   4 out of a maximum of   43
 All quantities printed in internal units (Hartrees-Bohrs-Radians)
 Mixed Optimization -- En-DIIS/RFO-DIIS
 Swapping is turned off.
 Update second derivatives using D2CorX and points    1    2    3    4
 DE= -2.49D-05 DEPred=-2.22D-05 R= 1.12D+00
 TightC=F SS=  1.41D+00  RLast= 2.87D-02 DXNew= 8.4853D-01 8.6184D-02
 Trust test= 1.12D+00 RLast= 2.87D-02 DXMaxT set to 5.05D-01
 ITU=  1  1  1  0
     Eigenvalues ---    0.00516   0.00990   0.05318   0.05656   0.05791
     Eigenvalues ---    0.05810   0.12184   0.13867   0.15947   0.16000
     Eigenvalues ---    0.16399   0.16685   0.21958   0.33420   0.34167
     Eigenvalues ---    0.34239   0.34373   0.38898   0.42207   0.46059
     Eigenvalues ---    0.52908
 En-DIIS/RFO-DIIS/Sim-DIIS IScMMF=       -3 using points:     4    3
 RFO step:  Lambda=-1.05976322D-05.
 DidBck=F Rises=F RFO-DIIS coefs:    2.14030   -1.14030
 Iteration  1 RMS(Cart)=  0.00568625 RMS(Int)=  0.00004643
 Iteration  2 RMS(Cart)=  0.00004011 RMS(Int)=  0.00000410
 Iteration  3 RMS(Cart)=  0.00000000 RMS(Int)=  0.00000410
 Variable       Old X    -DE/DX   Delta X   Delta X   Delta X     New X
                                 (Linear)    (Quad)   (Total)
    R1        2.85645  -0.00013   0.00448  -0.00494  -0.00046   2.85599
    R2        2.10765   0.00018  -0.00111   0.00141   0.00030   2.10795
    R3        2.10972   0.00015  -0.00237   0.00219  -0.00018   2.10954
    R4        2.10950   0.00009  -0.00230   0.00197  -0.00033   2.10917
    R5        2.67482   0.00008  -0.00015   0.00004  -0.00011   2.67471
    R6        2.12310   0.00018  -0.00134   0.00157   0.00023   2.12332
    R7        2.12379  -0.00010  -0.00122   0.00101  -0.00020   2.12359
    R8        1.82207   0.00004  -0.00062   0.00044  -0.00019   1.82188
    A1        1.92018  -0.00004   0.00260  -0.00255   0.00005   1.92023
    A2        1.93031   0.00001   0.00249  -0.00180   0.00069   1.93100
    A3        1.92555   0.00004   0.00395  -0.00263   0.00132   1.92687
    A4        1.89706   0.00001  -0.00365   0.00274  -0.00091   1.89615
    A5        1.90042  -0.00002  -0.00362   0.00246  -0.00116   1.89926
    A6        1.88962  -0.00000  -0.00203   0.00198  -0.00005   1.88957
    A7        1.95687  -0.00017   0.00603  -0.00520   0.00083   1.95770
    A8        1.92647   0.00004   0.00123  -0.00112   0.00010   1.92657
    A9        1.93889  -0.00003   0.00091  -0.00116  -0.00024   1.93865
   A10        1.91647   0.00011  -0.00119   0.00181   0.00060   1.91707
   A11        1.81851   0.00009  -0.00402   0.00388  -0.00015   1.81837
   A12        1.90342  -0.00004  -0.00345   0.00224  -0.00121   1.90221
   A13        1.87279  -0.00024  -0.00155   0.00032  -0.00124   1.87155
    D1       -3.08565   0.00005   0.00662  -0.00035   0.00627  -3.07938
    D2        1.05492  -0.00001   0.00304   0.00179   0.00483   1.05975
    D3       -1.05876   0.00003   0.00596   0.00049   0.00645  -1.05231
    D4        1.10160   0.00005   0.00790  -0.00097   0.00693   1.10853
    D5       -1.04102   0.00000   0.00432   0.00117   0.00549  -1.03553
    D6        3.12848   0.00004   0.00724  -0.00013   0.00711   3.13560
    D7       -0.98855   0.00003   0.00629  -0.00060   0.00570  -0.98285
    D8       -3.13117  -0.00002   0.00272   0.00155   0.00426  -3.12691
    D9        1.03833   0.00002   0.00564   0.00024   0.00588   1.04422
   D10       -1.02521   0.00014   0.01290   0.00442   0.01732  -1.00789
   D11        1.12306   0.00015   0.01780   0.00067   0.01847   1.14152
   D12       -3.12361   0.00021   0.01109   0.00616   0.01726  -3.10635
         Item               Value     Threshold  Converged?
 Maximum Force            0.000241     0.000450     YES
 RMS     Force            0.000102     0.000300     YES
 Maximum Displacement     0.016707     0.001800     NO 
 RMS     Displacement     0.005693     0.001200     NO 
 Predicted change in Energy=-5.305465D-06
 GradGradGradGradGradGradGradGradGradGradGradGradGradGradGradGradGradGrad

                          Input orientation:                          
 ---------------------------------------------------------------------
 Center     Atomic      Atomic             Coordinates (Angstroms)
 Number     Number       Type             X           Y           Z
 ---------------------------------------------------------------------
      1          6           0        1.078197   -0.006966   -0.062964
      2          6           0        2.589418   -0.014982   -0.078876
      3          8           0        3.114079    0.555910   -1.263006
      4          1           0        0.704411   -0.404203    0.910063
      5          1           0        0.672662   -0.641647   -0.886918
      6          1           0        0.693164    1.031690   -0.199608
      7          1           0        2.976550   -1.062689    0.043368
      8          1           0        3.005638    0.626988    0.744205
      9          1           0        2.756281    0.054499   -2.004663
 ---------------------------------------------------------------------
                    Distance matrix (angstroms):
                    1          2          3          4          5
     1  C    0.000000
     2  C    1.511326   0.000000
     3  O    2.429351   1.415398   0.000000
     4  H    1.115479   2.163965   3.383865   0.000000
     5  H    1.116323   2.172462   2.745196   1.812878   0.000000
     6  H    1.116123   2.169303   2.686636   1.814741   1.809108
     7  H    2.174765   1.123613   2.084559   2.519401   2.520041
     8  H    2.183678   1.123756   2.011394   2.527155   3.116532
     9  H    2.567088   1.934251   0.964100   3.593913   2.464841
                    6          7          8          9
     6  H    0.000000
     7  H    3.107944   0.000000
     8  H    2.530238   1.829489   0.000000
     9  H    2.910255   2.343301   2.818900   0.000000
 Stoichiometry    C2H6O
 Framework group  C1[X(C2H6O)]
 Deg. of freedom    21
 Full point group                 C1      NOp   1
 Largest Abelian subgroup         C1      NOp   1
 Largest concise Abelian subgroup C1      NOp   1
                         Standard orientation:                         
 ---------------------------------------------------------------------
 Center     Atomic      Atomic             Coordinates (Angstroms)
 Number     Number       Type             X           Y           Z
 ---------------------------------------------------------------------
      1          6           0       -1.200577   -0.238800   -0.023114
      2          6           0        0.081495    0.558118    0.049822
      3          8           0        1.227295   -0.258173   -0.105619
      4          1           0       -2.079498    0.445293    0.038610
      5          1           0       -1.257756   -0.970026    0.818441
      6          1           0       -1.252252   -0.805667   -0.983177
      7          1           0        0.140329    1.116624    1.023020
      8          1           0        0.149570    1.292593   -0.797963
      9          1           0        1.195742   -0.929342    0.585775
 ---------------------------------------------------------------------
 Rotational constants (GHZ):          33.7413722           9.3308262           8.2286435
 Standard basis: VSTO-6G (5D, 7F)
 There are    18 symmetry adapted cartesian basis functions of A   symmetry.
 There are    18 symmetry adapted basis functions of A   symmetry.
    18 basis functions,   108 primitive gaussians,    18 cartesian basis functions
    10 alpha electrons       10 beta electrons
       nuclear repulsion energy        65.6902054142 Hartrees.
 Integral buffers will be    131072 words long.
 Regular integral format.
 Two-electron integral symmetry is turned off.
 Do NDO integrals.
 One-electron integrals computed using PRISM.
 NBasis=    18 RedAO= F EigKep=  0.00D+00  NBF=    18
 NBsUse=    18 1.00D-04 EigRej=  0.00D+00 NBFU=    18
 Initial guess from the checkpoint file:  "/node/scratch/eb90162/Gau-31687.chk"
 B after Tr=     0.000000    0.000000    0.000000
         Rot=    1.000000    0.000597    0.000379    0.000237 Ang=   0.09 deg.
 Keep J ints in memory in canonical form, NReq=859920.
 Overlap will be assumed to be unity.
 Requested convergence on RMS density matrix=1.00D-08 within 128 cycles.
 Requested convergence on MAX density matrix=1.00D-06.
 Requested convergence on             energy=1.00D-06.
 No special actions if energy rises.
 SCF Done:  E(RAM1) = -0.102425137362     A.U. after   10 cycles
            NFock=  9  Conv=0.29D-08     -V/T= 0.9973
 Calling FoFJK, ICntrl=      2127 FMM=F ISym2X=0 I1Cent= 0 IOpClX= 0 NMat=1 NMatS=1 NMatT=0.
 ***** Axes restored to original set *****
 -------------------------------------------------------------------
 Center     Atomic                   Forces (Hartrees/Bohr)
 Number     Number              X              Y              Z
 -------------------------------------------------------------------
      1        6           0.000008609   -0.000067723    0.000034617
      2        6          -0.000030329    0.000148493    0.000250691
      3        8           0.000179036   -0.000109368   -0.000028432
      4        1           0.000024175   -0.000035094    0.000162027
      5        1          -0.000018997   -0.000149688   -0.000188261
      6        1           0.000019931    0.000225945   -0.000072816
      7        1           0.000095671   -0.000089114   -0.000057894
      8        1          -0.000096151    0.000012731    0.000083185
      9        1          -0.000181945    0.000063819   -0.000183116
 -------------------------------------------------------------------
 Cartesian Forces:  Max     0.000250691 RMS     0.000119723

 GradGradGradGradGradGradGradGradGradGradGradGradGradGradGradGradGradGrad
 Berny optimization.
 Using GEDIIS/GDIIS optimizer.
 FormGI is forming the generalized inverse of G from B-inverse, IUseBI=4.
 Internal  Forces:  Max     0.000230960 RMS     0.000101401
 Search for a local minimum.
 Step number   5 out of a maximum of   43
 All quantities printed in internal units (Hartrees-Bohrs-Radians)
 Mixed Optimization -- En-DIIS/RFO-DIIS
 Swapping is turned off.
 Update second derivatives using D2CorX and points    1    2    3    4    5
 DE= -8.17D-06 DEPred=-5.31D-06 R= 1.54D+00
 TightC=F SS=  1.41D+00  RLast= 3.56D-02 DXNew= 8.4853D-01 1.0675D-01
 Trust test= 1.54D+00 RLast= 3.56D-02 DXMaxT set to 5.05D-01
 ITU=  1  1  1  1  0
     Eigenvalues ---    0.00247   0.00731   0.05497   0.05787   0.05803
     Eigenvalues ---    0.05961   0.12218   0.13940   0.16000   0.16026
     Eigenvalues ---    0.16543   0.19932   0.23068   0.33516   0.34238
     Eigenvalues ---    0.34364   0.34786   0.39381   0.43897   0.44962
     Eigenvalues ---    0.54504
 En-DIIS/RFO-DIIS/Sim-DIIS IScMMF=       -3 using points:     5    4    3
 RFO step:  Lambda=-1.29193336D-05.
 DidBck=F Rises=F RFO-DIIS coefs:    2.63444   -1.42750   -0.20693
 Iteration  1 RMS(Cart)=  0.01013087 RMS(Int)=  0.00014762
 Iteration  2 RMS(Cart)=  0.00013021 RMS(Int)=  0.00000159
 Iteration  3 RMS(Cart)=  0.00000002 RMS(Int)=  0.00000159
 Variable       Old X    -DE/DX   Delta X   Delta X   Delta X     New X
                                 (Linear)    (Quad)   (Total)
    R1        2.85599  -0.00003   0.00007  -0.00011  -0.00004   2.85595
    R2        2.10795   0.00015   0.00029   0.00035   0.00064   2.10859
    R3        2.10954   0.00023  -0.00072   0.00096   0.00024   2.10979
    R4        2.10917   0.00021  -0.00096   0.00104   0.00008   2.10925
    R5        2.67471   0.00016  -0.00021   0.00041   0.00020   2.67492
    R6        2.12332   0.00011   0.00012   0.00022   0.00034   2.12366
    R7        2.12359   0.00003  -0.00055   0.00073   0.00017   2.12376
    R8        1.82188   0.00018  -0.00042   0.00049   0.00008   1.82196
    A1        1.92023  -0.00007   0.00055  -0.00050   0.00005   1.92028
    A2        1.93100  -0.00006   0.00158  -0.00097   0.00061   1.93161
    A3        1.92687  -0.00012   0.00288  -0.00203   0.00084   1.92771
    A4        1.89615   0.00008  -0.00215   0.00139  -0.00077   1.89538
    A5        1.89926   0.00010  -0.00255   0.00157  -0.00098   1.89828
    A6        1.88957   0.00008  -0.00046   0.00066   0.00019   1.88976
    A7        1.95770  -0.00014   0.00245  -0.00084   0.00161   1.95931
    A8        1.92657   0.00006   0.00039  -0.00015   0.00024   1.92681
    A9        1.93865  -0.00004  -0.00023   0.00029   0.00006   1.93871
   A10        1.91707  -0.00002   0.00077  -0.00215  -0.00139   1.91569
   A11        1.81837   0.00013  -0.00097   0.00154   0.00057   1.81894
   A12        1.90221   0.00001  -0.00261   0.00144  -0.00117   1.90104
   A13        1.87155   0.00011  -0.00231   0.00299   0.00068   1.87223
    D1       -3.07938  -0.00002   0.01145  -0.00095   0.01050  -3.06888
    D2        1.05975   0.00006   0.00845   0.00253   0.01098   1.07073
    D3       -1.05231   0.00003   0.01163   0.00063   0.01226  -1.04005
    D4        1.10853  -0.00004   0.01276  -0.00173   0.01103   1.11955
    D5       -1.03553   0.00004   0.00976   0.00175   0.01151  -1.02402
    D6        3.13560   0.00001   0.01294  -0.00015   0.01279  -3.13480
    D7       -0.98285  -0.00002   0.01046  -0.00061   0.00985  -0.97301
    D8       -3.12691   0.00006   0.00746   0.00287   0.01033  -3.11658
    D9        1.04422   0.00003   0.01064   0.00097   0.01161   1.05583
   D10       -1.00789   0.00010   0.03065   0.00097   0.03162  -0.97627
   D11        1.14152   0.00008   0.03341  -0.00137   0.03204   1.17357
   D12       -3.10635   0.00015   0.03022   0.00012   0.03034  -3.07601
         Item               Value     Threshold  Converged?
 Maximum Force            0.000231     0.000450     YES
 RMS     Force            0.000101     0.000300     YES
 Maximum Displacement     0.030825     0.001800     NO 
 RMS     Displacement     0.010148     0.001200     NO 
 Predicted change in Energy=-6.391016D-06
 GradGradGradGradGradGradGradGradGradGradGradGradGradGradGradGradGradGrad

                          Input orientation:                          
 ---------------------------------------------------------------------
 Center     Atomic      Atomic             Coordinates (Angstroms)
 Number     Number       Type             X           Y           Z
 ---------------------------------------------------------------------
      1          6           0        1.079769   -0.007886   -0.064769
      2          6           0        2.590987   -0.017466   -0.077836
      3          8           0        3.120622    0.552668   -1.260245
      4          1           0        0.703672   -0.394760    0.911924
      5          1           0        0.674454   -0.651070   -0.882384
      6          1           0        0.695076    1.029470   -0.212170
      7          1           0        2.977110   -1.065726    0.044520
      8          1           0        3.006416    0.622558    0.747284
      9          1           0        2.742293    0.070811   -2.004723
 ---------------------------------------------------------------------
                    Distance matrix (angstroms):
                    1          2          3          4          5
     1  C    0.000000
     2  C    1.511305   0.000000
     3  O    2.430733   1.415506   0.000000
     4  H    1.115818   2.164240   3.384905   0.000000
     5  H    1.116451   2.172982   2.752363   1.812758   0.000000
     6  H    1.116164   2.169931   2.684972   1.814412   1.809373
     7  H    2.175057   1.123793   2.083796   2.524105   2.516608
     8  H    2.183772   1.123848   2.011989   2.522831   3.117049
     9  H    2.556091   1.934834   0.964140   3.588811   2.461039
                    6          7          8          9
     6  H    0.000000
     7  H    3.108603   0.000000
     8  H    2.535433   1.828944   0.000000
     9  H    2.885025   2.355048   2.819172   0.000000
 Stoichiometry    C2H6O
 Framework group  C1[X(C2H6O)]
 Deg. of freedom    21
 Full point group                 C1      NOp   1
 Largest Abelian subgroup         C1      NOp   1
 Largest concise Abelian subgroup C1      NOp   1
                         Standard orientation:                         
 ---------------------------------------------------------------------
 Center     Atomic      Atomic             Coordinates (Angstroms)
 Number     Number       Type             X           Y           Z
 ---------------------------------------------------------------------
      1          6           0       -1.200502   -0.238415   -0.023434
      2          6           0        0.081744    0.558160    0.049768
      3          8           0        1.228850   -0.256938   -0.103267
      4          1           0       -2.079512    0.447142    0.025578
      5          1           0       -1.264680   -0.960896    0.825309
      6          1           0       -1.247544   -0.814839   -0.978078
      7          1           0        0.140265    1.117689    1.022606
      8          1           0        0.150125    1.292880   -0.797902
      9          1           0        1.183093   -0.944946    0.570615
 ---------------------------------------------------------------------
 Rotational constants (GHZ):          33.7519526           9.3294191           8.2217657
 Standard basis: VSTO-6G (5D, 7F)
 There are    18 symmetry adapted cartesian basis functions of A   symmetry.
 There are    18 symmetry adapted basis functions of A   symmetry.
    18 basis functions,   108 primitive gaussians,    18 cartesian basis functions
    10 alpha electrons       10 beta electrons
       nuclear repulsion energy        65.6872539041 Hartrees.
 Integral buffers will be    131072 words long.
 Regular integral format.
 Two-electron integral symmetry is turned off.
 Do NDO integrals.
 One-electron integrals computed using PRISM.
 NBasis=    18 RedAO= F EigKep=  0.00D+00  NBF=    18
 NBsUse=    18 1.00D-04 EigRej=  0.00D+00 NBFU=    18
 Initial guess from the checkpoint file:  "/node/scratch/eb90162/Gau-31687.chk"
 B after Tr=     0.000000   -0.000000    0.000000
         Rot=    1.000000    0.000606    0.000579    0.000339 Ang=   0.10 deg.
 Keep J ints in memory in canonical form, NReq=859920.
 Overlap will be assumed to be unity.
 Requested convergence on RMS density matrix=1.00D-08 within 128 cycles.
 Requested convergence on MAX density matrix=1.00D-06.
 Requested convergence on             energy=1.00D-06.
 No special actions if energy rises.
 SCF Done:  E(RAM1) = -0.102431828840     A.U. after   10 cycles
            NFock=  9  Conv=0.42D-08     -V/T= 0.9973
 Calling FoFJK, ICntrl=      2127 FMM=F ISym2X=0 I1Cent= 0 IOpClX= 0 NMat=1 NMatS=1 NMatT=0.
 ***** Axes restored to original set *****
 -------------------------------------------------------------------
 Center     Atomic                   Forces (Hartrees/Bohr)
 Number     Number              X              Y              Z
 -------------------------------------------------------------------
      1        6          -0.000107457   -0.000130101    0.000190557
      2        6           0.000006339    0.000056410    0.000258790
      3        8          -0.000029472    0.000001034    0.000079033
      4        1           0.000138297   -0.000004470    0.000007784
      5        1           0.000066710   -0.000080619   -0.000163819
      6        1           0.000108055    0.000220853   -0.000103596
      7        1          -0.000000478   -0.000067017   -0.000127809
      8        1          -0.000102057    0.000048731   -0.000026466
      9        1          -0.000079938   -0.000044821   -0.000114472
 -------------------------------------------------------------------
 Cartesian Forces:  Max     0.000258790 RMS     0.000109898

 GradGradGradGradGradGradGradGradGradGradGradGradGradGradGradGradGradGrad
 Berny optimization.
 Using GEDIIS/GDIIS optimizer.
 FormGI is forming the generalized inverse of G from B-inverse, IUseBI=4.
 Internal  Forces:  Max     0.000219553 RMS     0.000104712
 Search for a local minimum.
 Step number   6 out of a maximum of   43
 All quantities printed in internal units (Hartrees-Bohrs-Radians)
 Mixed Optimization -- En-DIIS/RFO-DIIS
 Swapping is turned off.
 Update second derivatives using D2CorX and points    1    2    3    4    5
                                                      6
 DE= -6.69D-06 DEPred=-6.39D-06 R= 1.05D+00
 TightC=F SS=  1.41D+00  RLast= 6.40D-02 DXNew= 8.4853D-01 1.9196D-01
 Trust test= 1.05D+00 RLast= 6.40D-02 DXMaxT set to 5.05D-01
 ITU=  1  1  1  1  1  0
     Eigenvalues ---    0.00220   0.00741   0.05498   0.05786   0.05800
     Eigenvalues ---    0.06119   0.12236   0.13946   0.16000   0.16056
     Eigenvalues ---    0.17210   0.19689   0.22725   0.33646   0.34249
     Eigenvalues ---    0.34482   0.34873   0.38397   0.41825   0.46335
     Eigenvalues ---    0.53514
 En-DIIS/RFO-DIIS/Sim-DIIS IScMMF=       -3 using points:     6    5    4    3
 RFO step:  Lambda=-1.90179352D-06.
 DidBck=F Rises=F RFO-DIIS coefs:    1.31037   -0.39248    0.00685    0.07526
 Iteration  1 RMS(Cart)=  0.00276450 RMS(Int)=  0.00000753
 Iteration  2 RMS(Cart)=  0.00000658 RMS(Int)=  0.00000041
 Iteration  3 RMS(Cart)=  0.00000000 RMS(Int)=  0.00000041
 Variable       Old X    -DE/DX   Delta X   Delta X   Delta X     New X
                                 (Linear)    (Quad)   (Total)
    R1        2.85595  -0.00021  -0.00027   0.00001  -0.00027   2.85569
    R2        2.10859  -0.00004   0.00025  -0.00037  -0.00013   2.10846
    R3        2.10979   0.00014   0.00025   0.00004   0.00029   2.11007
    R4        2.10925   0.00018   0.00020   0.00020   0.00040   2.10965
    R5        2.67492  -0.00003   0.00008  -0.00015  -0.00007   2.67485
    R6        2.12366   0.00005   0.00018  -0.00005   0.00013   2.12379
    R7        2.12376  -0.00003   0.00015  -0.00037  -0.00022   2.12355
    R8        1.82196   0.00014   0.00008   0.00015   0.00023   1.82219
    A1        1.92028  -0.00011  -0.00016  -0.00012  -0.00028   1.92000
    A2        1.93161  -0.00012  -0.00003  -0.00059  -0.00062   1.93099
    A3        1.92771  -0.00022  -0.00011  -0.00104  -0.00115   1.92656
    A4        1.89538   0.00015   0.00008   0.00074   0.00081   1.89620
    A5        1.89828   0.00019   0.00003   0.00094   0.00097   1.89925
    A6        1.88976   0.00013   0.00020   0.00013   0.00033   1.89009
    A7        1.95931  -0.00020   0.00003  -0.00057  -0.00054   1.95877
    A8        1.92681   0.00005  -0.00002   0.00036   0.00034   1.92715
    A9        1.93871  -0.00003  -0.00002  -0.00012  -0.00014   1.93857
   A10        1.91569   0.00002  -0.00040  -0.00033  -0.00073   1.91496
   A11        1.81894   0.00010   0.00045  -0.00035   0.00010   1.81904
   A12        1.90104   0.00007  -0.00004   0.00102   0.00098   1.90202
   A13        1.87223   0.00001   0.00042  -0.00066  -0.00025   1.87198
    D1       -3.06888  -0.00001   0.00231   0.00071   0.00302  -3.06586
    D2        1.07073   0.00007   0.00281   0.00128   0.00409   1.07482
    D3       -1.04005  -0.00003   0.00288  -0.00016   0.00272  -1.03733
    D4        1.11955  -0.00004   0.00233   0.00025   0.00258   1.12213
    D5       -1.02402   0.00004   0.00284   0.00082   0.00366  -1.02036
    D6       -3.13480  -0.00006   0.00291  -0.00063   0.00228  -3.13251
    D7       -0.97301   0.00001   0.00217   0.00114   0.00332  -0.96969
    D8       -3.11658   0.00009   0.00268   0.00172   0.00439  -3.11219
    D9        1.05583  -0.00001   0.00275   0.00027   0.00302   1.05885
   D10       -0.97627   0.00001   0.00754  -0.00069   0.00685  -0.96942
   D11        1.17357  -0.00005   0.00725  -0.00087   0.00638   1.17995
   D12       -3.07601   0.00009   0.00727  -0.00003   0.00724  -3.06877
         Item               Value     Threshold  Converged?
 Maximum Force            0.000220     0.000450     YES
 RMS     Force            0.000105     0.000300     YES
 Maximum Displacement     0.008234     0.001800     NO 
 RMS     Displacement     0.002765     0.001200     NO 
 Predicted change in Energy=-9.400668D-07
 GradGradGradGradGradGradGradGradGradGradGradGradGradGradGradGradGradGrad

                          Input orientation:                          
 ---------------------------------------------------------------------
 Center     Atomic      Atomic             Coordinates (Angstroms)
 Number     Number       Type             X           Y           Z
 ---------------------------------------------------------------------
      1          6           0        1.080169   -0.008265   -0.065059
      2          6           0        2.591253   -0.018232   -0.077116
      3          8           0        3.121108    0.552188   -1.259242
      4          1           0        0.703663   -0.392377    0.912489
      5          1           0        0.675826   -0.653492   -0.881754
      6          1           0        0.696944    1.029357   -0.215982
      7          1           0        2.977394   -1.066692    0.044087
      8          1           0        3.006108    0.621686    0.748219
      9          1           0        2.737936    0.074428   -2.004042
 ---------------------------------------------------------------------
                    Distance matrix (angstroms):
                    1          2          3          4          5
     1  C    0.000000
     2  C    1.511165   0.000000
     3  O    2.430147   1.415468   0.000000
     4  H    1.115750   2.163861   3.384178   0.000000
     5  H    1.116603   2.172524   2.752375   1.813357   0.000000
     6  H    1.116377   2.169132   2.681912   1.815163   1.809884
     7  H    2.175235   1.123861   2.083290   2.525604   2.514982
     8  H    2.183460   1.123733   2.011953   2.521222   3.116585
     9  H    2.552388   1.934722   0.964262   3.586409   2.457987
                    6          7          8          9
     6  H    0.000000
     7  H    3.108297   0.000000
     8  H    2.535373   1.829548   0.000000
     9  H    2.876578   2.356763   2.818927   0.000000
 Stoichiometry    C2H6O
 Framework group  C1[X(C2H6O)]
 Deg. of freedom    21
 Full point group                 C1      NOp   1
 Largest Abelian subgroup         C1      NOp   1
 Largest concise Abelian subgroup C1      NOp   1
                         Standard orientation:                         
 ---------------------------------------------------------------------
 Center     Atomic      Atomic             Coordinates (Angstroms)
 Number     Number       Type             X           Y           Z
 ---------------------------------------------------------------------
      1          6           0       -1.200141   -0.238464   -0.023485
      2          6           0        0.081655    0.558564    0.049760
      3          8           0        1.228644   -0.256730   -0.102758
      4          1           0       -2.079161    0.447219    0.021922
      5          1           0       -1.264899   -0.958677    0.827339
      6          1           0       -1.244003   -0.817556   -0.976913
      7          1           0        0.140571    1.117753    1.022848
      8          1           0        0.149968    1.292671   -0.798295
      9          1           0        1.179294   -0.948175    0.567518
 ---------------------------------------------------------------------
 Rotational constants (GHZ):          33.7358338           9.3363884           8.2254799
 Standard basis: VSTO-6G (5D, 7F)
 There are    18 symmetry adapted cartesian basis functions of A   symmetry.
 There are    18 symmetry adapted basis functions of A   symmetry.
    18 basis functions,   108 primitive gaussians,    18 cartesian basis functions
    10 alpha electrons       10 beta electrons
       nuclear repulsion energy        65.6918646049 Hartrees.
 Integral buffers will be    131072 words long.
 Regular integral format.
 Two-electron integral symmetry is turned off.
 Do NDO integrals.
 One-electron integrals computed using PRISM.
 NBasis=    18 RedAO= F EigKep=  0.00D+00  NBF=    18
 NBsUse=    18 1.00D-04 EigRej=  0.00D+00 NBFU=    18
 Initial guess from the checkpoint file:  "/node/scratch/eb90162/Gau-31687.chk"
 B after Tr=    -0.000000    0.000000    0.000000
         Rot=    1.000000    0.000235    0.000158    0.000022 Ang=   0.03 deg.
 Keep J ints in memory in canonical form, NReq=859920.
 Overlap will be assumed to be unity.
 Requested convergence on RMS density matrix=1.00D-08 within 128 cycles.
 Requested convergence on MAX density matrix=1.00D-06.
 Requested convergence on             energy=1.00D-06.
 No special actions if energy rises.
 SCF Done:  E(RAM1) = -0.102433072835     A.U. after    9 cycles
            NFock=  8  Conv=0.55D-08     -V/T= 0.9973
 Calling FoFJK, ICntrl=      2127 FMM=F ISym2X=0 I1Cent= 0 IOpClX= 0 NMat=1 NMatS=1 NMatT=0.
 ***** Axes restored to original set *****
 -------------------------------------------------------------------
 Center     Atomic                   Forces (Hartrees/Bohr)
 Number     Number              X              Y              Z
 -------------------------------------------------------------------
      1        6          -0.000145736   -0.000063308    0.000109798
      2        6           0.000085364   -0.000019052    0.000180727
      3        8           0.000008144    0.000027488   -0.000099740
      4        1           0.000046014    0.000008461   -0.000023706
      5        1           0.000013041   -0.000019625   -0.000041907
      6        1           0.000031154    0.000063684   -0.000042235
      7        1          -0.000018941   -0.000020070   -0.000042071
      8        1          -0.000029003    0.000021624    0.000036858
      9        1           0.000009963    0.000000797   -0.000077724
 -------------------------------------------------------------------
 Cartesian Forces:  Max     0.000180727 RMS     0.000064290

 GradGradGradGradGradGradGradGradGradGradGradGradGradGradGradGradGradGrad
 Berny optimization.
 Using GEDIIS/GDIIS optimizer.
 FormGI is forming the generalized inverse of G from B-inverse, IUseBI=4.
 Internal  Forces:  Max     0.000166385 RMS     0.000045935
 Search for a local minimum.
 Step number   7 out of a maximum of   43
 All quantities printed in internal units (Hartrees-Bohrs-Radians)
 Mixed Optimization -- En-DIIS/RFO-DIIS
 Swapping is turned off.
 Update second derivatives using D2CorX and points    1    2    3    4    5
                                                      6    7
 DE= -1.24D-06 DEPred=-9.40D-07 R= 1.32D+00
 TightC=F SS=  1.41D+00  RLast= 1.56D-02 DXNew= 8.4853D-01 4.6854D-02
 Trust test= 1.32D+00 RLast= 1.56D-02 DXMaxT set to 5.05D-01
 ITU=  1  1  1  1  1  1  0
     Eigenvalues ---    0.00206   0.00780   0.05494   0.05561   0.05800
     Eigenvalues ---    0.05860   0.12121   0.13828   0.15499   0.16019
     Eigenvalues ---    0.16098   0.18977   0.22183   0.33541   0.34121
     Eigenvalues ---    0.34273   0.34760   0.38498   0.41126   0.51073
     Eigenvalues ---    0.52910
 En-DIIS/RFO-DIIS/Sim-DIIS IScMMF=       -3 using points:     7    6    5    4    3
 RFO step:  Lambda=-4.08102553D-07.
 DidBck=F Rises=F RFO-DIIS coefs:    1.39444   -0.30131   -0.30244    0.18242    0.02689
 Iteration  1 RMS(Cart)=  0.00088043 RMS(Int)=  0.00000056
 Iteration  2 RMS(Cart)=  0.00000051 RMS(Int)=  0.00000016
 Variable       Old X    -DE/DX   Delta X   Delta X   Delta X     New X
                                 (Linear)    (Quad)   (Total)
    R1        2.85569   0.00006  -0.00012   0.00035   0.00023   2.85592
    R2        2.10846  -0.00004  -0.00003  -0.00016  -0.00019   2.10827
    R3        2.11007   0.00004   0.00023  -0.00012   0.00010   2.11018
    R4        2.10965   0.00005   0.00029  -0.00011   0.00018   2.10983
    R5        2.67485   0.00017   0.00002   0.00040   0.00042   2.67526
    R6        2.12379   0.00001   0.00007  -0.00004   0.00003   2.12382
    R7        2.12355   0.00003   0.00000  -0.00001  -0.00001   2.12354
    R8        1.82219   0.00006   0.00015  -0.00002   0.00013   1.82232
    A1        1.92000  -0.00003  -0.00018   0.00008  -0.00010   1.91990
    A2        1.93099  -0.00003  -0.00039   0.00012  -0.00027   1.93072
    A3        1.92656  -0.00007  -0.00074   0.00014  -0.00060   1.92596
    A4        1.89620   0.00004   0.00053  -0.00013   0.00039   1.89659
    A5        1.89925   0.00006   0.00062  -0.00007   0.00055   1.89980
    A6        1.89009   0.00003   0.00021  -0.00015   0.00006   1.89015
    A7        1.95877  -0.00003  -0.00038   0.00014  -0.00024   1.95854
    A8        1.92715  -0.00000   0.00011  -0.00017  -0.00007   1.92708
    A9        1.93857  -0.00003  -0.00002  -0.00024  -0.00026   1.93831
   A10        1.91496   0.00000  -0.00052   0.00035  -0.00016   1.91479
   A11        1.81904   0.00004   0.00022   0.00004   0.00026   1.81930
   A12        1.90202   0.00003   0.00061  -0.00010   0.00051   1.90253
   A13        1.87198   0.00010   0.00026   0.00017   0.00044   1.87242
    D1       -3.06586  -0.00001   0.00070   0.00064   0.00134  -3.06452
    D2        1.07482   0.00002   0.00155   0.00021   0.00177   1.07659
    D3       -1.03733   0.00000   0.00072   0.00062   0.00134  -1.03598
    D4        1.12213  -0.00002   0.00041   0.00068   0.00109   1.12322
    D5       -1.02036   0.00001   0.00126   0.00025   0.00151  -1.01885
    D6       -3.13251  -0.00001   0.00043   0.00066   0.00109  -3.13142
    D7       -0.96969   0.00000   0.00088   0.00069   0.00157  -0.96812
    D8       -3.11219   0.00003   0.00174   0.00026   0.00200  -3.11019
    D9        1.05885   0.00001   0.00091   0.00067   0.00158   1.06042
   D10       -0.96942  -0.00000   0.00172  -0.00074   0.00098  -0.96844
[...]
      3          8           0        3.121092    0.552350   -1.259095
      4          1           0        0.703660   -0.391446    0.912944
      5          1           0        0.676080   -0.654433   -0.881250
      6          1           0        0.697551    1.029313   -0.217320
      7          1           0        2.977337   -1.067085    0.043677
      8          1           0        3.005867    0.621272    0.748753
      9          1           0        2.737359    0.075548   -2.004309
 ---------------------------------------------------------------------
                    Distance matrix (angstroms):
                    1          2          3          4          5
     1  C    0.000000
     2  C    1.511287   0.000000
     3  O    2.430235   1.415688   0.000000
     4  H    1.115649   2.163819   3.384151   0.000000
     5  H    1.116658   2.172478   2.752667   1.813575   0.000000
     6  H    1.116472   2.168871   2.680735   1.815514   1.810045
     7  H    2.175304   1.123878   2.083374   2.526207   2.514271
     8  H    2.183373   1.123728   2.012332   2.520459   3.116448
     9  H    2.552380   1.935258   0.964331   3.586695   2.458253
                    6          7          8          9
     6  H    0.000000
     7  H    3.108123   0.000000
     8  H    2.535374   1.829890   0.000000
     9  H    2.874685   2.357424   2.819444   0.000000
 Stoichiometry    C2H6O
 Framework group  C1[X(C2H6O)]
 Deg. of freedom    21
 Full point group                 C1      NOp   1
 Largest Abelian subgroup         C1      NOp   1
 Largest concise Abelian subgroup C1      NOp   1
                         Standard orientation:                         
 ---------------------------------------------------------------------
 Center     Atomic      Atomic             Coordinates (Angstroms)
 Number     Number       Type             X           Y           Z
 ---------------------------------------------------------------------
      1          6           0       -1.200180   -0.238600   -0.023483
      2          6           0        0.081531    0.558796    0.049770
      3          8           0        1.228697   -0.256641   -0.102689
      4          1           0       -2.079200    0.447015    0.020434
      5          1           0       -1.265076   -0.957918    0.828160
      6          1           0       -1.242519   -0.818840   -0.976394
      7          1           0        0.140412    1.117698    1.023044
      8          1           0        0.149451    1.292763   -0.798430
      9          1           0        1.179245   -0.948766    0.566977
 ---------------------------------------------------------------------
 Rotational constants (GHZ):          33.7245223           9.3364395           8.2248800
 Standard basis: VSTO-6G (5D, 7F)
 There are    18 symmetry adapted cartesian basis functions of A   symmetry.
 There are    18 symmetry adapted basis functions of A   symmetry.
    18 basis functions,   108 primitive gaussians,    18 cartesian basis functions
    10 alpha electrons       10 beta electrons
       nuclear repulsion energy        65.6902778664 Hartrees.
 Integral buffers will be    131072 words long.
 Regular integral format.
 Two-electron integral symmetry is turned off.
 Do NDO integrals.
 One-electron integrals computed using PRISM.
 NBasis=    18 RedAO= F EigKep=  0.00D+00  NBF=    18
 NBsUse=    18 1.00D-04 EigRej=  0.00D+00 NBFU=    18
 Initial guess from the checkpoint file:  "/node/scratch/eb90162/Gau-31687.chk"
 B after Tr=    -0.000000   -0.000000   -0.000000
         Rot=    1.000000    0.000118    0.000043   -0.000061 Ang=   0.02 deg.
 Keep J ints in memory in canonical form, NReq=859920.
 Overlap will be assumed to be unity.
 Requested convergence on RMS density matrix=1.00D-08 within 128 cycles.
 Requested convergence on MAX density matrix=1.00D-06.
 Requested convergence on             energy=1.00D-06.
 No special actions if energy rises.
 SCF Done:  E(RAM1) = -0.102433256421     A.U. after    9 cycles
            NFock=  8  Conv=0.26D-08     -V/T= 0.9973
 Calling FoFJK, ICntrl=      2127 FMM=F ISym2X=0 I1Cent= 0 IOpClX= 0 NMat=1 NMatS=1 NMatT=0.
 ***** Axes restored to original set *****
 -------------------------------------------------------------------
 Center     Atomic                   Forces (Hartrees/Bohr)
 Number     Number              X              Y              Z
 -------------------------------------------------------------------
      1        6          -0.000008562    0.000004248   -0.000007124
      2        6           0.000032546   -0.000006329   -0.000036339
      3        8          -0.000027477   -0.000013967    0.000048948
      4        1           0.000000692    0.000005000   -0.000003310
      5        1          -0.000002583    0.000001190    0.000008952
      6        1          -0.000001586   -0.000007799   -0.000006315
      7        1          -0.000007456    0.000022521   -0.000022847
      8        1           0.000007726    0.000000474   -0.000013557
      9        1           0.000006699   -0.000005339    0.000031592
 -------------------------------------------------------------------
 Cartesian Forces:  Max     0.000048948 RMS     0.000017780

 GradGradGradGradGradGradGradGradGradGradGradGradGradGradGradGradGradGrad
 Berny optimization.
 Using GEDIIS/GDIIS optimizer.
 FormGI is forming the generalized inverse of G from B-inverse, IUseBI=4.
 Internal  Forces:  Max     0.000082819 RMS     0.000017947
 Search for a local minimum.
 Step number   8 out of a maximum of   43
 All quantities printed in internal units (Hartrees-Bohrs-Radians)
 Mixed Optimization -- En-DIIS/RFO-DIIS
 Swapping is turned off.
 Update second derivatives using D2CorX and points    1    2    3    4    5
                                                      6    7    8
 DE= -1.84D-07 DEPred=-2.01D-07 R= 9.11D-01
 Trust test= 9.11D-01 RLast= 5.01D-03 DXMaxT set to 5.05D-01
 ITU=  0  1  1  1  1  1  1  0
     Eigenvalues ---    0.00180   0.00704   0.05098   0.05515   0.05804
     Eigenvalues ---    0.05868   0.12460   0.13867   0.15229   0.16054
     Eigenvalues ---    0.16130   0.20885   0.22577   0.33443   0.34157
     Eigenvalues ---    0.34293   0.34736   0.39241   0.44828   0.52907
     Eigenvalues ---    0.56835
 En-DIIS/RFO-DIIS/Sim-DIIS IScMMF=       -3 using points:     8    7    6    5    4    3
 RFO step:  Lambda=-5.17771561D-08.
 DIIS inversion failure, remove point   6.
 DIIS inversion failure, remove point   5.
 RFO-DIIS uses    4 points instead of    6
 DidBck=F Rises=F RFO-DIIS coefs:    1.48498   -0.43438   -0.08352    0.03292    0.00000
                  RFO-DIIS coefs:    0.00000
 Iteration  1 RMS(Cart)=  0.00030549 RMS(Int)=  0.00000008
 Iteration  2 RMS(Cart)=  0.00000006 RMS(Int)=  0.00000006
 Variable       Old X    -DE/DX   Delta X   Delta X   Delta X     New X
                                 (Linear)    (Quad)   (Total)
    R1        2.85592   0.00001   0.00010  -0.00004   0.00006   2.85597
    R2        2.10827  -0.00000  -0.00012   0.00009  -0.00003   2.10824
    R3        2.11018  -0.00001   0.00006  -0.00005   0.00000   2.11018
    R4        2.10983  -0.00001   0.00011  -0.00009   0.00001   2.10984
    R5        2.67526  -0.00008   0.00019  -0.00031  -0.00012   2.67515
    R6        2.12382  -0.00003   0.00001  -0.00008  -0.00007   2.12376
    R7        2.12354  -0.00001  -0.00002   0.00001  -0.00001   2.12353
    R8        1.82232  -0.00002   0.00007  -0.00010  -0.00002   1.82230
    A1        1.91990  -0.00000  -0.00006   0.00004  -0.00002   1.91988
    A2        1.93072   0.00001  -0.00018   0.00018  -0.00000   1.93072
    A3        1.92596   0.00000  -0.00038   0.00033  -0.00005   1.92591
    A4        1.89659  -0.00000   0.00026  -0.00023   0.00003   1.89662
    A5        1.89980  -0.00000   0.00035  -0.00028   0.00007   1.89987
    A6        1.89015  -0.00001   0.00004  -0.00006  -0.00002   1.89013
    A7        1.95854   0.00000  -0.00020   0.00012  -0.00008   1.95846
    A8        1.92708   0.00000  -0.00002   0.00005   0.00002   1.92710
    A9        1.93831   0.00001  -0.00014   0.00019   0.00006   1.93837
   A10        1.91479  -0.00001  -0.00007  -0.00003  -0.00010   1.91469
   A11        1.81930  -0.00001   0.00011  -0.00016  -0.00005   1.81925
   A12        1.90253   0.00000   0.00034  -0.00018   0.00015   1.90268
   A13        1.87242  -0.00004   0.00018  -0.00030  -0.00012   1.87230
    D1       -3.06452   0.00000   0.00046   0.00016   0.00062  -3.06391
    D2        1.07659   0.00001   0.00070   0.00009   0.00079   1.07738
    D3       -1.03598  -0.00000   0.00039   0.00016   0.00054  -1.03544
    D4        1.12322   0.00000   0.00029   0.00030   0.00059   1.12381
    D5       -1.01885   0.00001   0.00054   0.00023   0.00077  -1.01808
    D6       -3.13142  -0.00000   0.00022   0.00030   0.00052  -3.13090
    D7       -0.96812   0.00000   0.00061   0.00005   0.00066  -0.96746
    D8       -3.11019   0.00001   0.00085  -0.00002   0.00083  -3.10936
    D9        1.06042  -0.00000   0.00053   0.00005   0.00058   1.06101
   D10       -0.96844  -0.00000  -0.00022  -0.00017  -0.00039  -0.96884
   D11        1.18056  -0.00000  -0.00044  -0.00005  -0.00049   1.18007
   D12       -3.06751  -0.00001  -0.00002  -0.00037  -0.00039  -3.06790
         Item               Value     Threshold  Converged?
 Maximum Force            0.000083     0.000450     YES
 RMS     Force            0.000018     0.000300     YES
 Maximum Displacement     0.000808     0.001800     YES
 RMS     Displacement     0.000305     0.001200     YES
 Predicted change in Energy=-2.585361D-08
 Optimization completed.
    -- Stationary point found.
                           ----------------------------
                           !   Optimized Parameters   !
                           ! (Angstroms and Degrees)  !
 --------------------------                            --------------------------
 ! Name  Definition              Value          Derivative Info.                !
 --------------------------------------------------------------------------------
 ! R1    R(1,2)                  1.5113         -DE/DX =    0.0                 !
 ! R2    R(1,4)                  1.1156         -DE/DX =    0.0                 !
 ! R3    R(1,5)                  1.1167         -DE/DX =    0.0                 !
 ! R4    R(1,6)                  1.1165         -DE/DX =    0.0                 !
 ! R5    R(2,3)                  1.4157         -DE/DX =   -0.0001              !
 ! R6    R(2,7)                  1.1239         -DE/DX =    0.0                 !
 ! R7    R(2,8)                  1.1237         -DE/DX =    0.0                 !
 ! R8    R(3,9)                  0.9643         -DE/DX =    0.0                 !
 ! A1    A(2,1,4)              110.0021         -DE/DX =    0.0                 !
 ! A2    A(2,1,5)              110.6221         -DE/DX =    0.0                 !
 ! A3    A(2,1,6)              110.3494         -DE/DX =    0.0                 !
 ! A4    A(4,1,5)              108.6665         -DE/DX =    0.0                 !
 ! A5    A(4,1,6)              108.8506         -DE/DX =    0.0                 !
 ! A6    A(5,1,6)              108.2978         -DE/DX =    0.0                 !
 ! A7    A(1,2,3)              112.2158         -DE/DX =    0.0                 !
 ! A8    A(1,2,7)              110.4137         -DE/DX =    0.0                 !
 ! A9    A(1,2,8)              111.057          -DE/DX =    0.0                 !
 ! A10   A(3,2,7)              109.7095         -DE/DX =    0.0                 !
 ! A11   A(3,2,8)              104.2381         -DE/DX =    0.0                 !
 ! A12   A(7,2,8)              109.007          -DE/DX =    0.0                 !
 ! A13   A(2,3,9)              107.2817         -DE/DX =    0.0                 !
 ! D1    D(4,1,2,3)           -175.5843         -DE/DX =    0.0                 !
 ! D2    D(4,1,2,7)             61.6841         -DE/DX =    0.0                 !
 ! D3    D(4,1,2,8)            -59.3574         -DE/DX =    0.0                 !
 ! D4    D(5,1,2,3)             64.3558         -DE/DX =    0.0                 !
 ! D5    D(5,1,2,7)            -58.3758         -DE/DX =    0.0                 !
 ! D6    D(5,1,2,8)           -179.4174         -DE/DX =    0.0                 !
 ! D7    D(6,1,2,3)            -55.4691         -DE/DX =    0.0                 !
 ! D8    D(6,1,2,7)           -178.2007         -DE/DX =    0.0                 !
 ! D9    D(6,1,2,8)             60.7577         -DE/DX =    0.0                 !
 ! D10   D(1,2,3,9)            -55.4877         -DE/DX =    0.0                 !
 ! D11   D(7,2,3,9)             67.6409         -DE/DX =    0.0                 !
 ! D12   D(8,2,3,9)           -175.7554         -DE/DX =    0.0                 !
 --------------------------------------------------------------------------------
 GradGradGradGradGradGradGradGradGradGradGradGradGradGradGradGradGradGrad

                          Input orientation:                          
 ---------------------------------------------------------------------
 Center     Atomic      Atomic             Coordinates (Angstroms)
 Number     Number       Type             X           Y           Z
 ---------------------------------------------------------------------
      1          6           0        1.080124   -0.008439   -0.064939
      2          6           0        2.591330   -0.018481   -0.076861
      3          8           0        3.121092    0.552350   -1.259095
      4          1           0        0.703660   -0.391446    0.912944
      5          1           0        0.676080   -0.654433   -0.881250
      6          1           0        0.697551    1.029313   -0.217320
      7          1           0        2.977337   -1.067085    0.043677
      8          1           0        3.005867    0.621272    0.748753
      9          1           0        2.737359    0.075548   -2.004309
 ---------------------------------------------------------------------
                    Distance matrix (angstroms):
                    1          2          3          4          5
     1  C    0.000000
     2  C    1.511287   0.000000
     3  O    2.430235   1.415688   0.000000
     4  H    1.115649   2.163819   3.384151   0.000000
     5  H    1.116658   2.172478   2.752667   1.813575   0.000000
     6  H    1.116472   2.168871   2.680735   1.815514   1.810045
     7  H    2.175304   1.123878   2.083374   2.526207   2.514271
     8  H    2.183373   1.123728   2.012332   2.520459   3.116448
     9  H    2.552380   1.935258   0.964331   3.586695   2.458253
                    6          7          8          9
     6  H    0.000000
     7  H    3.108123   0.000000
     8  H    2.535374   1.829890   0.000000
     9  H    2.874685   2.357424   2.819444   0.000000
 Stoichiometry    C2H6O
 Framework group  C1[X(C2H6O)]
 Deg. of freedom    21
 Full point group                 C1      NOp   1
 Largest Abelian subgroup         C1      NOp   1
 Largest concise Abelian subgroup C1      NOp   1
                         Standard orientation:                         
 ---------------------------------------------------------------------
 Center     Atomic      Atomic             Coordinates (Angstroms)
 Number     Number       Type             X           Y           Z
 ---------------------------------------------------------------------
      1          6           0       -1.200180   -0.238600   -0.023483
      2          6           0        0.081531    0.558796    0.049770
      3          8           0        1.228697   -0.256641   -0.102689
      4          1           0       -2.079200    0.447015    0.020434
      5          1           0       -1.265076   -0.957918    0.828160
      6          1           0       -1.242519   -0.818840   -0.976394
      7          1           0        0.140412    1.117698    1.023044
      8          1           0        0.149451    1.292763   -0.798430
      9          1           0        1.179245   -0.948766    0.566977
 ---------------------------------------------------------------------
 Rotational constants (GHZ):          33.7245223           9.3364395           8.2248800

 **********************************************************************

            Population analysis using the SCF density.

 **********************************************************************

 Orbital symmetries:
       Occupied  (A) (A) (A) (A) (A) (A) (A) (A) (A) (A)
       Virtual   (A) (A) (A) (A) (A) (A) (A) (A)
 The electronic state is 1-A.
 Alpha  occ. eigenvalues --   -1.40423  -1.15137  -0.87042  -0.65982  -0.58786
 Alpha  occ. eigenvalues --   -0.56774  -0.50022  -0.47572  -0.44126  -0.40600
 Alpha virt. eigenvalues --    0.13419   0.13838   0.15175   0.15353   0.16882
 Alpha virt. eigenvalues --    0.17482   0.17978   0.23222
          Condensed to atoms (all electrons):
               1          2          3          4          5          6
     1  C    4.253838   0.000000   0.000000   0.000000   0.000000   0.000000
     2  C    0.000000   4.024362   0.000000   0.000000   0.000000   0.000000
     3  O    0.000000   0.000000   6.327129   0.000000   0.000000   0.000000
     4  H    0.000000   0.000000   0.000000   0.915802   0.000000   0.000000
     5  H    0.000000   0.000000   0.000000   0.000000   0.927285   0.000000
     6  H    0.000000   0.000000   0.000000   0.000000   0.000000   0.911672
     7  H    0.000000   0.000000   0.000000   0.000000   0.000000   0.000000
     8  H    0.000000   0.000000   0.000000   0.000000   0.000000   0.000000
     9  H    0.000000   0.000000   0.000000   0.000000   0.000000   0.000000
               7          8          9
     1  C    0.000000   0.000000   0.000000
     2  C    0.000000   0.000000   0.000000
     3  O    0.000000   0.000000   0.000000
     4  H    0.000000   0.000000   0.000000
     5  H    0.000000   0.000000   0.000000
     6  H    0.000000   0.000000   0.000000
     7  H    0.939279   0.000000   0.000000
     8  H    0.000000   0.895579   0.000000
     9  H    0.000000   0.000000   0.805054
 Mulliken charges:
               1
     1  C   -0.253838
     2  C   -0.024362
     3  O   -0.327129
     4  H    0.084198
     5  H    0.072715
     6  H    0.088328
     7  H    0.060721
     8  H    0.104421
     9  H    0.194946
 Sum of Mulliken charges =  -0.00000
 Mulliken charges with hydrogens summed into heavy atoms:
               1
     1  C   -0.008597
     2  C    0.140780
     3  O   -0.132183
 Charge=             -0.0000 electrons
 Dipole moment (field-independent basis, Debye):
    X=             -1.3684    Y=             -0.1115    Z=              0.9775  Tot=              1.6853
 N-N= 6.569027786636D+01 E-N=-7.899584655748D+01  KE=-3.846029384582D+01
 1\1\GINC-BRAINIAC-IA-0001\FOpt\RAM1\ZDO\C2H6O1\ROOT\26-Jun-2017\0\\# o
 pt ram1\\Mol\\0,1\C,1.0801236428,-0.0084386859,-0.0649385116\C,2.59133
 0235,-0.0184809186,-0.076860642\O,3.1210915081,0.5523500876,-1.2590947
 742\H,0.7036603582,-0.3914464491,0.9129436921\H,0.6760796306,-0.654432
 9047,-0.8812504835\H,0.6975507167,1.0293129612,-0.2173202068\H,2.97733
 73749,-1.0670849631,0.0436766686\H,3.0058673679,0.6212724627,0.7487534
 95\H,2.7373591658,0.0755484099,-2.0043092378\\Version=ES64L-G16RevA.03
 \State=1-A\HF=-0.1024333\RMSD=2.628e-09\RMSF=1.778e-05\Dipole=-0.46328
 5,-0.4610547,0.1115193\PG=C01 [X(C2H6O1)]\\@


 The earth never tires,
 The earth is rude, silent, incomprehensible at first,
 Nature is rude and incomprehensible at first,
 Be not discouraged, keep on,
 There are divine things well envelop'd,
 I swear to you there are divine things more beautiful than words can tell.
                                 -- Walt Whitman
 Job cpu time:       0 days  0 hours  0 minutes  4.6 seconds.
 Elapsed time:       0 days  0 hours  0 minutes  5.1 seconds.
 File lengths (MBytes):  RWF=      6 Int=      0 D2E=      0 Chk=      2 Scr=      1
 Normal termination of Gaussian 16 at Mon Jun 26 17:12:37 2017.
